  <PP_INFO>

############################################################
#    Opium Parameter File                                  #
############################################################
#-----------------------------------------------------------
#Command line   : opium Cr Cr.log ae ps nl tc2 ke upf qmcpack rpt 
 
#Opium version  : 4.1 
#Compile Host   : py-garuda.cos.ncsu.edu 
#Compile OS     : Linux 5.15.0-113-generic x86_64 
#Compile Date   : Sat Jul 13 02:11:52 EDT 2024 
#-----------------------------------------------------------
#Execution Host : py-garuda.cos.ncsu.edu 
#Execution Date : Mon Jan 20 22:26:22 2025
 
#-----------------------------------------------------------
############################################################
[Atom]
Cr
8            
100   2.00  -
200   2.00  -
210   6.00  -
300   2.00  -
310   6.00  -
320   4.00  -
400   0.00  -
410   0.00  -

[Pseudo]
5 1.477 1.439 1.478  1.477 1.477
g

[Gaussinfo]
14 3
2 2 4
2 16.90078760  219.48146209
2  7.33662150   28.07933176
2 17.31974516  139.98396871
2  6.92409757   19.54835786
1 18.28091074   14.00000000
3 17.09800655  255.93275041
2 16.72267276 -132.01826317
2  5.02865105   -0.77388761

[KBdesign]
s

[Relativity]
nrl

[XC]
pbe

[Configs]
10

300  2.00 -
310  6.00 -
320  4.00 -
400  2.00 -
410  0.00 -

300  2.00 -
310  6.00 -
320  5.00 -
400  1.00 -
410  0.00 -

300  2.00 -
310  6.00 -
320  6.00 -
400  0.00 -
410  0.00 -

300  2.00 -
310  6.00 -
320  4.00 -
400  1.00 -
410  0.00 -

300  2.00 -
310  6.00 -
320  5.00 -
400  0.00 -
410  0.00 -

300  2.00 -
310  6.00 -
320  4.00 -
400  0.00 -
410  0.00 -

300  2.00 -
310  6.00 -
320  3.00 -
400  0.00 -
410  0.00 -

300  2.00 -
310  6.00 -
320  2.00 -
400  0.00 -
410  0.00 -

300  2.00 -
310  6.00 -
320  1.00 -
400  0.00 -
410  0.00 -

300  2.00 -
310  6.00 -
320  0.00 -
400  0.00 -
410  0.00 -


############################################################
############################################################
  </PP_INFO>



<PP_HEADER>
   0         Version Number
   Cr        Element
   NC        Norm - Conserving pseudopotential
    F      Nonlinear Core Correction
SLA  PW   PBE  PBE     PBE  Exchange-Correlation functional
 14          Z valence
 0          Total energy
 0.000000   0.000000     Suggested cutoff for wfc and rho
 2           Max angular momentum component
 1158           Number of points in mesh
 3  2     Number of Wavefuncitons, Number of Projectors
 Wavefunctions         nl  l   occ
                      3S  0  2.000000
                      3P  1  6.000000
                      3D  2  4.000000
</PP_HEADER>
<PP_MESH>
  <PP_R>
 3.4668063717531747e-05  3.5121690732897059e-05  3.5581253397589252e-05  3.6046829378792464e-05 
 3.6518497359955634e-05  3.6996337054090221e-05  3.7480429217241780e-05  3.7970855662138106e-05 
 3.8467699272015634e-05  3.8971044014626982e-05  3.9480974956431656e-05  3.9997578276972507e-05 
 4.0520941283440276e-05  4.1051152425428701e-05  4.1588301309882781e-05  4.2132478716242363e-05 
 4.2683776611784380e-05  4.3242288167165291e-05  4.3808107772167294e-05  4.4381331051650327e-05 
 4.4962054881712945e-05  4.5550377406064614e-05  4.6146398052612215e-05  4.6750217550263636e-05 
 4.7361937945951046e-05  4.7981662621877324e-05  4.8609496312987698e-05  4.9245545124670271e-05 
 4.9889916550688078e-05  5.0542719491345773e-05  5.1204064271894067e-05  5.1874062661174933e-05 
 5.2552827890510881e-05  5.3240474672841091e-05  5.3937119222108493e-05  5.4642879272899990e-05 
 5.5357874100343937e-05  5.6082224540267947e-05  5.6816053009620381e-05  5.7559483527159144e-05 
 5.8312641734411196e-05  5.9075654916906032e-05  5.9848652025687599e-05  6.0631763699107083e-05 
 6.1425122284901188e-05  6.2228861862559173e-05  6.3043118265982646e-05  6.3868029106441777e-05 
 6.4703733795831993e-05  6.5550373570234840e-05  6.6408091513787371e-05  6.7277032582863328e-05 
 6.8157343630571648e-05  6.9049173431574599e-05  6.9952672707231212e-05  7.0867994151069461e-05 
 7.1795292454591929e-05  7.2734724333418967e-05  7.3686448553774106e-05  7.4650625959315630e-05 
 7.5627419498319992e-05  7.6616994251220145e-05  7.7619517458504624e-05  7.8635158548981529e-05 
 7.9664089168412510e-05  8.0706483208521193e-05  8.1762516836381344e-05  8.2832368524189554e-05 
 8.3916219079427465e-05  8.5014251675418457e-05  8.6126651882284720e-05  8.7253607698308870e-05 
 8.8395309581706052e-05  8.9551950482811933e-05  9.0723725876691726e-05  9.1910833796175921e-05 
 9.3113474865328416e-05  9.4331852333352147e-05  9.5566172108939147e-05  9.6816642795069304e-05 
 9.8083475724264793e-05  9.9366884994305863e-05  1.0066708750441375e-04  1.0198430299190730e-04 
 1.0331875406933900e-04  1.0467066626211701e-04  1.0604026804661967e-04  1.0742779088880838e-04 
 1.0883346928334572e-04  1.1025754079322617e-04  1.1170024608992427e-04  1.1316182899406896e-04 
 1.1464253651664976e-04  1.1614261890076218e-04  1.1766232966389961e-04  1.1920192564079787e-04 
 1.2076166702684152e-04  1.2234181742203716e-04  1.2394264387556250e-04  1.2556441693089830e-04 
 1.2720741067155086e-04  1.2887190276737284e-04  1.3055817452149013e-04  1.3226651091784264e-04 
 1.3399720066934733e-04  1.3575053626669158e-04  1.3752681402776421e-04  1.3932633414773463e-04 
 1.4114940074978617e-04  1.4299632193651366e-04  1.4486740984199348e-04  1.4676298068453506e-04 
 1.4868335482012257e-04  1.5062885679655529e-04  1.5259981540829788e-04  1.5459656375204682e-04 
 1.5661943928302463e-04  1.5866878387201067e-04  1.6074494386311813e-04  1.6284827013232696e-04 
 1.6497911814678282e-04  1.6713784802487174e-04  1.6932482459708112e-04  1.7154041746765702e-04 
 1.7378500107706758e-04  1.7605895476528529e-04  1.7836266283589568e-04  1.8069651462104569e-04 
 1.8306090454724188e-04  1.8545623220200922e-04  1.8788290240142260e-04  1.9034132525852119e-04 
 1.9283191625261921e-04  1.9535509629952253e-04  1.9791129182266453e-04  2.0050093482517253e-04 
 2.0312446296287764e-04  2.0578231961827936e-04  2.0847495397547839e-04  2.1120282109608982e-04 
 2.1396638199614964e-04  2.1676610372402768e-04  2.1960245943935920e-04  2.2247592849301105e-04 
 2.2538699650809246e-04  2.2833615546202660e-04  2.3132390376969596e-04  2.3435074636767568e-04 
 2.3741719479956916e-04  2.4052376730245947e-04  2.4367098889449372e-04  2.4685939146361168e-04 
 2.5008951385743625e-04  2.5336190197433991e-04  2.5667710885570312e-04  2.6003569477937925e-04 
 2.6343822735438321e-04  2.6688528161681853e-04  2.7037744012705988e-04  2.7391529306820719e-04 
 2.7749943834582818e-04  2.8113048168900480e-04  2.8480903675270468e-04  2.8853572522148879e-04 
 2.9231117691457854e-04  2.9613602989229552e-04  3.0001093056389663e-04  3.0393653379681809e-04 
 3.0791350302734958e-04  3.1194251037275665e-04  3.1602423674487000e-04  3.2015937196516151e-04 
 3.2434861488132545e-04  3.2859267348538541e-04  3.3289226503334667e-04  3.3724811616641444e-04 
 3.4166096303379743e-04  3.4613155141711933e-04  3.5066063685645758e-04  3.5524898477803045e-04 
 3.5989737062355780e-04  3.6460657998131114e-04  3.6937740871888051e-04  3.7421066311767707e-04 
 3.7910716000919806e-04  3.8406772691307230e-04  3.8909320217691326e-04  3.9418443511800148e-04 
 3.9934228616682181e-04  4.0456762701247757e-04  4.0986134075000858e-04  4.1522432202963593e-04 
 4.2065747720796033e-04  4.2616172450113838e-04  4.3173799414006326e-04  4.3738722852757606e-04 
 4.4311038239773422e-04  4.4890842297716288e-04  4.5478233014852016e-04  4.6073309661609843e-04 
 4.6676172807359452e-04  4.7286924337407280e-04  4.7905667470215580e-04  4.8532506774846476e-04 
 4.9167548188634367e-04  4.9810899035089670e-04  5.0462668042036663e-04  5.1122965359988784e-04 
 5.1791902580764361e-04  5.2469592756345805e-04  5.3156150417985797e-04  5.3851691595563193e-04 
 5.4556333837192477e-04  5.5270196229089612e-04  5.5993399415697916e-04  5.6726065620077133e-04 
 5.7468318664559664e-04  5.8220283991676665e-04  5.8982088685358223e-04  5.9753861492410631e-04 
 6.0535732844275221e-04  6.1327834879071406e-04  6.2130301463928330e-04  6.2943268217608773e-04 
 6.3766872533429077e-04  6.4601253602478853e-04  6.5446552437144667e-04  6.6302911894941497e-04 
 6.7170476702655909e-04  6.8049393480805302e-04  6.8939810768417096e-04  6.9841879048132170e-04 
 7.0755750771636866e-04  7.1681580385427447e-04  7.2619524356912256e-04  7.3569741200854881e-04 
 7.4532391506163616e-04  7.5507637963031116e-04  7.6495645390429838e-04  7.7496580763966594e-04 
 7.8510613244101837e-04  7.9537914204738213e-04  8.0578657262183077e-04  8.1633018304490257e-04 
 8.2701175521185377e-04  8.3783309433380418e-04  8.4879602924282027e-04  8.5990241270099529e-04 
 8.7115412171356757e-04  8.8255305784614053e-04  8.9410114754605167e-04  9.0580034246794474e-04 
 9.1765261980360745e-04  9.2965998261611889e-04  9.4182446017837367e-04  9.5414810831603131e-04 
 9.6663300975495948e-04  9.7928127447321611e-04  9.9209504005764288e-04  1.0050764720651219e-03 
 1.0182277643885590e-03  1.0315511396276581e-03  1.0450488494645460e-03  1.0587231750443110e-03 
 1.0725764273605218e-03  1.0866109476457921e-03  1.1008291077674538e-03  1.1152333106284077e-03 
 1.1298259905732219e-03  1.1446096137995372e-03  1.1595866787748664e-03  1.1747597166588371e-03 
 1.1901312917309654e-03  1.2057040018240233e-03  1.2214804787630815e-03  1.2374633888102926e-03 
 1.2536554331154951e-03  1.2700593481727157e-03  1.2866779062826413e-03  1.3035139160211468e-03 
 1.3205702227139487e-03  1.3378497089174747e-03  1.3553552949060190e-03  1.3730899391652793e-03 
 1.3910566388923452e-03  1.4092584305022331e-03  1.4276983901410484e-03  1.4463796342058567e-03 
 1.4653053198713697e-03  1.4844786456235089e-03  1.5039028517999625e-03  1.5235812211378036e-03 
 1.5435170793282875e-03  1.5637137955788981e-03  1.5841747831827513e-03  1.6049035000954527e-03 
 1.6259034495194951e-03  1.6471781804963139e-03  1.6687312885060796e-03  1.6905664160753455e-03 
 1.7126872533926394e-03  1.7350975389321176e-03  1.7578010600853755e-03  1.7808016538015245e-03 
 1.8041032072356467e-03  1.8277096584057313e-03  1.8516249968582121e-03  1.8758532643422090e-03 
 1.9003985554925914e-03  1.9252650185219847e-03  1.9504568559218271e-03  1.9759783251725943e-03 
 2.0018337394633354e-03  2.0280274684206039e-03  2.0545639388469365e-03  2.0814476354689957e-03 
 2.1086831016954954e-03  2.1362749403850520e-03  2.1642278146240743e-03  2.1925464485148417e-03 
 2.2212356279738788e-03  2.2503002015407995e-03  2.2797450811977123e-03  2.3095752431993616e-03 
 2.3397957289141235e-03  2.3704116456760129e-03  2.4014281676478302e-03  2.4328505366956114e-03 
 2.4646840632745158e-03  2.4969341273262981e-03  2.5296061791885431e-03  2.5627057405157787e-03 
 2.5962384052126489e-03  2.6302098403792988e-03  2.6646257872691265e-03  2.6994920622590694e-03 
 2.7348145578325873e-03  2.7705992435755038e-03  2.8068521671848769e-03  2.8435794554910834e-03 
 2.8807873154932623e-03  2.9184820354083117e-03  2.9566699857336153e-03  2.9953576203236680e-03 
 3.0345514774807966e-03  3.0742581810601455e-03  3.1144844415891284e-03  3.1552370574015106e-03 
 3.1965229157863637e-03  3.2383489941520184e-03  3.2807223612052686e-03  3.3236501781459993e-03 
 3.3671396998774454e-03  3.4111982762322890e-03  3.4558333532147979e-03  3.5010524742592210e-03 
 3.5468632815046342e-03  3.5932735170864992e-03  3.6402910244450904e-03  3.6879237496510579e-03 
 3.7361797427483321e-03  3.7850671591145991e-03  3.8345942608395828e-03  3.8847694181213537e-03 
 3.9356011106809179e-03  3.9870979291952947e-03  4.0392685767493847e-03  4.0921218703067952e-03 
 4.1456667421999336e-03  4.1999122416395912e-03  4.2548675362442832e-03  4.3105419135895974e-03 
 4.3669447827778150e-03  4.4240856760280767e-03  4.4819742502873357e-03  4.5406202888624249e-03 
 4.6000337030734475e-03  4.6602245339288145e-03  4.7212029538222016e-03  4.7829792682517035e-03 
 4.8455639175614936e-03  4.9089674787062632e-03  4.9732006670387546e-03  5.0382743381206709e-03 
 5.1041994895573099e-03  5.1709872628561719e-03  5.2386489453099079e-03  5.3071959719038914e-03 
 5.3766399272487664e-03  5.4469925475382694e-03  5.5182657225326765e-03  5.5904714975682024e-03 
 5.6636220755926754e-03  5.7377298192278917e-03  5.8128072528589106e-03  5.8888670647507047e-03 
 5.9659221091925155e-03  6.0439854086702521e-03  6.1230701560673244e-03  6.2031897168942710e-03 
 6.2843576315475694e-03  6.3665876175979727e-03  6.4498935721088446e-03  6.5342895739847742e-03 
 6.6197898863509484e-03  6.7064089589636555e-03  6.7941614306523306e-03  6.8830621317935471e-03 
 6.9731260868173897e-03  7.0643685167466261e-03  7.1568048417690669e-03  7.2504506838436539e-03 
 7.3453218693405849e-03  7.4414344317160113e-03  7.5388046142217321e-03  7.6374488726503398e-03 
 7.7373838781162928e-03  7.8386265198733696e-03  7.9411939081690010e-03  8.0451033771359159e-03 
 8.1503724877216906e-03  8.2570190306565667e-03  8.3650610294601271e-03  8.4745167434873200e-03 
 8.5854046710143340e-03  8.6977435523648405e-03  8.8115523730771684e-03  8.9268503671129026e-03 
 9.0436570201074384e-03  9.1619920726631488e-03  9.2818755236855691e-03  9.4033276337632532e-03 
 9.5263689285918721e-03  9.6510202024431037e-03  9.7773025216789083e-03  9.9052372283118043e-03 
 1.0034845943611715e-02  1.0166150571759992e-02  1.0299173303551320e-02  1.0433936620143976e-02 
 1.0570463296859213e-02  1.0708776407030345e-02  1.0848899325902191e-02  1.0990855734581542e-02 
 1.1134669624039339e-02  1.1280365299165198e-02  1.1427967382874967e-02  1.1577500820272112e-02 
 1.1728990882863452e-02  1.1882463172830130e-02  1.2037943627354428e-02  1.2195458523003222e-02 
 1.2355034480168768e-02  1.2516698467567646e-02  1.2680477806798506e-02  1.2846400176959467e-02 
 1.3014493619326009e-02  1.3184786542089969e-02  1.3357307725160613e-02  1.3532086325028494e-02 
 1.3709151879692976e-02  1.3888534313654236e-02  1.4070263942970557e-02  1.4254371480381845e-02 
 1.4440888040500087e-02  1.4629845145067884e-02  1.4821274728285642e-02  1.5015209142208550e-02 
 1.5211681162214141e-02  1.5410723992541420e-02  1.5612371271902452e-02  1.5816657079167389e-02 
 1.6023615939123891e-02  1.6233282828311851e-02  1.6445693180934577e-02  1.6660882894847222e-02 
 1.6878888337623611e-02  1.7099746352702443e-02  1.7323494265613932e-02  1.7550169890287903e-02 
 1.7779811535444435e-02  1.8012458011068145e-02  1.8248148634967102e-02  1.8486923239417728e-02 
 1.8728822177896481e-02  1.8973886331899708e-02  1.9222157117852707e-02  1.9473676494109218e-02 
 1.9728486968042473e-02  1.9986631603229027e-02  2.0248154026726663e-02  2.0513098436447368e-02 
 2.0781509608626989e-02  2.1053432905392470e-02  2.1328914282428169e-02  2.1608000296742480e-02 
 2.1890738114536068e-02  2.2177175519173090e-02  2.2467360919256676e-02  2.2761343356810126e-02 
 2.3059172515565055e-02  2.3360898729358179e-02  2.3666572990637763e-02  2.3976246959081501e-02 
 2.4289972970327107e-02  2.4607804044817185e-02  2.4929793896759787e-02  2.5255996943206269e-02 
 2.5586468313247887e-02  2.5921263857332694e-02  2.6260440156704506e-02  2.6604054532965188e-02 
 2.6952165057762160e-02  2.7304830562602661e-02  2.7662110648796378e-02  2.8024065697528241e-02 
 2.8390756880062970e-02  2.8762246168083209e-02  2.9138596344162753e-02  2.9519871012377141e-02 
 2.9906134609052767e-02  3.0297452413656820e-02  3.0693890559829642e-02  3.1095516046561508e-02 
 3.1502396749515583e-02  3.1914601432499072e-02  3.2332199759084523e-02  3.2755262304382991e-02 
 3.3183860566971597e-02  3.3618066980976823e-02  3.4057954928316078e-02  3.4503598751099450e-02 
 3.4955073764193663e-02  3.5412456267950476e-02  3.5875823561101645e-02  3.6345253953822605e-02 
 3.6820826780966952e-02  3.7302622415474405e-02  3.7790722281953931e-02  3.8285208870444683e-02 
 3.8786165750357031e-02  3.9293677584596023e-02  3.9807830143869564e-02  4.0328710321183910e-02 
 4.0856406146528794e-02  4.1391006801754615e-02  4.1932602635644529e-02  4.2481285179183516e-02 
 4.3037147161027356e-02  4.3600282523173987e-02  4.4170786436839915e-02  4.4748755318544414e-02 
 4.5334286846404122e-02  4.5927479976640900e-02  4.6528434960305530e-02  4.7137253360220628e-02 
 4.7754038068144829e-02  4.8378893322161776e-02  4.9011924724296614e-02  4.9653239258362986e-02 
 5.0302945308043523e-02  5.0961152675207004e-02  5.1627972598465112e-02  5.2303517771971890e-02 
 5.2987902364469548e-02  5.3681242038583155e-02  5.4383653970367818e-02  5.5095256869111840e-02 
 5.5816170997398773e-02  5.6546518191432159e-02  5.7286421881626075e-02  5.8036007113465266e-02 
 5.8795400568637891e-02  5.9564730586445368e-02  6.0344127185491765e-02  6.1133722085657372e-02 
 6.1933648730359621e-02  6.2744042309105394e-02  6.3565039780338284e-02  6.4396779894584991e-02 
 6.5239403217904515e-02  6.6093052155643900e-02  6.6957870976505435e-02  6.7834005836928224e-02 
 6.8721604805788941e-02  6.9620817889425909e-02  7.0531797056990461e-02  7.1454696266130158e-02 
 7.2389671489007920e-02  7.3336880738661805e-02  7.4296484095709325e-02  7.5268643735401833e-02 
 7.6253523955032293e-02  7.7251291201701919e-02  7.8262114100450170e-02  7.9286163482752803e-02 
 8.0323612415392764e-02  8.1374636229708891e-02  8.2439412551227415e-02  8.3518121329680797e-02 
 8.4610944869420113e-02  8.5718067860224581e-02  8.6839677408514740e-02  8.7975963068973762e-02 
 8.9127116876582757e-02  9.0293333379075039e-02  9.1474809669815249e-02  9.2671745421108634e-02 
 9.3884342917945840e-02  9.5112807092189999e-02  9.6357345557210414e-02  9.7618168642969794e-02 
 9.8895489431570519e-02  1.0018952379326602e-01  1.0150049042294335e-01  1.0282861087708312e-01 
 1.0417410961120317e-01  1.0553721401779198e-01  1.0691815446473857e-01  1.0831716433426525e-01 
 1.0973448006236995e-01  1.1117034117878366e-01  1.1262499034745277e-01  1.1409867340754896e-01 
 1.1559163941501692e-01  1.1710414068466529e-01  1.1863643283280856e-01  1.2018877482046675e-01 
 1.2176142899713051e-01  1.2335466114509878e-01  1.2496874052439659e-01  1.2660393991828070e-01 
 1.2826053567934065e-01  1.2993880777620287e-01  1.3163903984084621e-01  1.3336151921653630e-01 
 1.3510653700638733e-01  1.3687438812255903e-01  1.3866537133609799e-01  1.4047978932742949e-01 
 1.4231794873751283e-01  1.4418016021966329e-01  1.4606673849205359e-01  1.4797800239090203e-01 
 1.4991427492435649e-01  1.5187588332708366e-01  1.5386315911557238e-01  1.5587643814416083e-01 
 1.5791606066179667e-01  1.5998237136953983e-01  1.6207571947881796e-01  1.6419645877044395e-01 
 1.6634494765440555e-01  1.6852154923043783e-01  1.7072663134938762e-01  1.7296056667538140e-01 
 1.7522373274880645e-01  1.7751651205011523e-01  1.7983929206446694e-01  1.8219246534721245e-01 
 1.8457642959023735e-01  1.8699158768917271e-01  1.8943834781148564e-01  1.9191712346546033e-01 
 1.9442833357008196e-01  1.9697240252583523e-01  1.9954976028642868e-01  2.0216084243145829e-01 
 2.0480609024002117e-01  2.0748595076529294e-01  2.1020087691008069e-01  2.1295132750336462e-01 
 2.1573776737784142e-01  2.1856066744848179e-01  2.2142050479211692e-01  2.2431776272806372e-01 
 2.2725293089980958e-01  2.3022650535776143e-01  2.3323898864308013e-01  2.3629088987261082e-01 
 2.3938272482492517e-01  2.4251501602748901e-01  2.4568829284497065e-01  2.4890309156870505e-01 
 2.5215995550732795e-01  2.5545943507859670e-01  2.5880208790241188e-01  2.6218847889505659e-01 
 2.6561918036466853e-01  2.6909477210796134e-01  2.7261584150821211e-01  2.7618298363452981e-01 
 2.7979680134242441e-01  2.8345790537568888e-01  2.8716691446961912e-01  2.9092445545557971e-01 
 2.9473116336694061e-01  2.9858768154639925e-01  3.0249466175470680e-01  3.0645276428081741e-01 
 3.1046265805347878e-01  3.1452502075428229e-01  3.1864053893219330e-01  3.2280990811957910e-01 
 3.2703383294975591e-01  3.3131302727607342e-01  3.3564821429255765e-01  3.4004012665613254e-01 
 3.4448950661044070e-01  3.4899710611128437e-01  3.5356368695370838e-01  3.5819002090074270e-01 
 3.6287688981383615e-01  3.6762508578499026e-01  3.7243541127062524e-01  3.7730867922719735e-01 
 3.8224571324858997e-01  3.8724734770530334e-01  3.9231442788546511e-01  3.9744781013768576e-01 
 4.0264836201578397e-01  4.0791696242540493e-01  4.1325450177255757e-01  4.1866188211409544e-01 
 4.2414001731016637e-01  4.2968983317865700e-01  4.3531226765165826e-01  4.4100827093397793e-01 
 4.4677880566372852e-01  4.5262484707501233e-01  4.5854738316274274e-01  4.6454741484961476e-01 
 4.7062595615526415e-01  4.7678403436763911e-01  4.8302269021661431e-01  4.8934297804987681e-01 
 4.9574596601111343e-01  5.0223273622052933e-01  5.0880438495772884e-01  5.1546202284698994e-01 
 5.2220677504496171e-01  5.2903978143081865e-01  5.3596219679890333e-01  5.4297519105388881e-01 
 5.5007994940849592e-01  5.5727767258379657e-01  5.6456957701213961e-01  5.7195689504272706e-01 
 5.7944087514988929e-01  5.8702278214407733e-01  5.9470389738561868e-01  6.0248551900127101e-01 
 6.1036896210360836e-01  6.1835555901327843e-01  6.2644665948416767e-01  6.3464363093151344e-01 
 6.4294785866299997e-01  6.5136074611287864e-01  6.5988371507915189e-01  6.6851820596386069e-01 
 6.7726567801651516e-01  6.8612760958071251e-01  6.9510549834397894e-01  7.0420086159088380e-01 
 7.1341523645946514e-01  7.2275018020100401e-01  7.3220727044321221e-01  7.4178810545684959e-01 
 7.5149430442583653e-01  7.6132750772090052e-01  7.7128937717680257e-01  7.8138159637319060e-01 
 7.9160587091912982e-01  8.0196392874135281e-01  8.1245752037628460e-01  8.2308841926588772e-01 
 8.3385842205737681e-01  8.4476934890685718e-01  8.5582304378693574e-01  8.6702137479835584e-01 
 8.7836623448571161e-01  8.8985954015729207e-01  9.0150323420911249e-01  9.1329928445317765e-01 
 9.2524968445005606e-01  9.3735645384579014e-01  9.4962163871322325e-01  9.6204731189779036e-01 
 9.7463557336783380e-01  9.8738855056950336e-01  1.0003083987862993e+00  1.0133973015033211e+00 
 1.0266574707762806e+00  1.0400911476053452e+00  1.0537006023138726e+00  1.0674881349321006e+00 
 1.0814560755858571e+00  1.0956067848903577e+00  1.1099426543491548e+00  1.1244661067583079e+00 
 1.1391795966158433e+00  1.1540856105365624e+00  1.1691866676722975e+00  1.1844853201376468e+00 
 1.1999841534412889e+00  1.2156857869229409e+00  1.2315928741960327e+00  1.2477081035961739e+00 
 1.2640341986354886e+00  1.2805739184628966e+00  1.2973300583304144e+00  1.3143054500655613e+00 
 1.3315029625499433e+00  1.3489255022041020e+00  1.3665760134787066e+00  1.3844574793521722e+00 
 1.4025729218347909e+00  1.4209254024794589e+00  1.4395180228990885e+00  1.4583539252907778e+00 
 1.4774362929668643e+00  1.4967683508929037e+00  1.5163533662326973e+00  1.5361946489004523e+00 
 1.5562955521201634e+00  1.5766594729923165e+00  1.5972898530680073e+00  1.6181901789305710e+00 
 1.6393639827848234e+00  1.6608148430540108e+00  1.6825463849845750e+00  1.7045622812588241e+00 
 1.7268662526156293e+00  1.7494620684792357e+00  1.7723535475963035e+00  1.7955445586812881e+00 
 1.8190390210702629e+00  1.8428409053832844e+00  1.8669542341954548e+00  1.8913830827167362e+00 
 1.9161315794806715e+00  1.9412039070421176e+00  1.9666043026841067e+00  1.9923370591339582e+00 
 2.0184065252887580e+00  2.0448171069503345e+00  2.0715732675698484e+00  2.0986795290021258e+00 
 2.1261404722698654e+00  2.1539607383378381e+00  2.1821450288972253e+00  2.2106981071602121e+00 
 2.2396247986649844e+00  2.2689299920912549e+00  2.2986186400864654e+00  2.3286957601027818e+00 
 2.3591664352450761e+00  2.3900358151299717e+00  2.4213091167561402e+00  2.4529916253859909e+00 
 2.4850886954388893e+00  2.5176057513960681e+00  2.5505482887173776e+00  2.5839218747700330e+00 
 2.6177321497695076e+00  2.6519848277327496e+00  2.6866856974438584e+00  2.7218406234324077e+00 
 2.7574555469645610e+00  2.7935364870471617e+00  2.8300895414449609e+00  2.8671208877111507e+00 
 2.9046367842313945e+00  2.9426435712814847e+00  2.9811476720988974e+00  3.0201555939683153e+00 
 3.0596739293213759e+00  3.0997093568508123e+00  3.1402686426391639e+00  3.1813586413022654e+00 
 3.2229862971476879e+00  3.2651586453483472e+00  3.3078828131314642e+00  3.3511660209830811e+00 
 3.3950155838683442e+00  3.4394389124677462e+00  3.4844435144295525e+00  3.5300369956386102e+00 
 3.5762270615017600e+00  3.6230215182500705e+00  3.6704282742581129e+00  3.7184553413804733e+00 
 3.7671108363058106e+00  3.8164029819285710e+00  3.8663401087386866e+00  3.9169306562294417e+00 
 3.9681831743237743e+00  4.0201063248192268e+00  4.0727088828518161e+00  4.1259997383790479e+00 
 4.1799878976823441e+00  4.2346824848891247e+00  4.2900927435148057e+00  4.3462280380249760e+00 
 4.4030978554180162e+00  4.4607118068284208e+00  4.5190796291511051e+00  4.5782111866869624e+00 
 4.6381164728099629e+00  4.6988056116560273e+00  4.7602888598340725e+00  4.8225766081593786e+00 
 4.8856793834096619e+00  4.9496078501041305e+00  5.0143728123058127e+00  5.0799852154474676e+00 
 5.1464561481813886e+00  5.2137968442534159e+00  5.2820186844014625e+00  5.3511331982788883e+00 
 5.4211520664030388e+00  5.4920871221292771e+00  5.5639503536508554e+00  5.6367539060249392e+00 
 5.7105100832251603e+00  5.7852313502210144e+00  5.8609303350844755e+00  5.9376198311241373e+00 
 6.0153127990473685e+00  6.0940223691506645e+00  6.1737618435387107e+00  6.2545446983724657e+00 
 6.3363845861466652e+00  6.4192953379971334e+00  6.5032909660382670e+00  6.5883856657311215e+00 
 6.6745938182824807e+00  6.7619299930753085e+00  6.8504089501310128e+00  6.9400456426039270e+00 
 7.0308552193084202e+00  7.1228530272790920e+00  7.2160546143644533e+00  7.3104757318545497e+00 
 7.4061323371429824e+00  7.5030405964236913e+00  7.6012168874231589e+00  7.7006778021682303e+00 
 7.8014401497902277e+00  7.9035209593657223e+00  8.0069374827944930e+00  8.1117071977151429e+00 
 8.2178478104588546e+00  8.3253772590418063e+00  8.4343137161967388e+00  8.5446755924441913e+00 
 8.6564815392039201e+00  8.7697504519470399e+00  8.8845014733893919e+00  9.0007539967267203e+00 
 9.1185276689121615e+00  9.2378423939766261e+00  9.3587183363926467e+00  9.4811759244821570e+00 
 9.6052358538690221e+00  9.7309190909765793e+00  9.8582468765710427e+00  9.9872407293512264e+00 
 1.0117922449585270e+01  1.0250314122794927e+01  1.0384438123488076e+01  1.0520317118940062e+01 
 1.0657974073024521e+01  1.0797432250094332e+01  1.0938715218913339e+01  1.1081846856639546e+01 
 1.1226851352860391e+01  1.1373753213680864e+01  1.1522577265865079e+01  1.1673348661032074e+01 
 1.1826092879906506e+01  1.1980835736624863e+01  1.2137603383098261e+01  1.2296422313432073e+01 
 1.2457319368403526e+01  1.2620321739997868e+01  1.2785456976003855e+01  1.2952752984669409e+01 
 1.3122238039418180e+01  1.3293940783627809e+01  1.3467890235470733e+01  1.3644115792818335e+01 
 1.3822647238209241e+01  1.4003514743882638e+01  1.4186748876877473e+01  1.4372380604198334e+01 
 1.4560441298048962e+01  1.4750962741134218e+01  1.4943977132031472e+01  1.5139517090632124e+01 
 1.5337615663654608e+01  1.5538306330229259e+01  1.5741623007556390e+01  1.5947600056638384e+01 
 1.6156272288086779e+01  1.6367674968005353e+01  1.6581843823950170e+01  1.6798815050967630e+01 
 1.7018625317711503e+01  1.7241311772640046e+01  1.7466912050294155e+01  1.7695464277657706e+01 
 1.7927007080601097e+01  1.8161579590409119e+01  1.8399221450394240e+01  1.8639972822596402e+01 
 1.8883874394570551e+01  1.9130967386262803e+01  1.9381293556976885e+01  1.9634895212431449e+01 
 1.9891815211909865e+01  2.0152096975503536e+01  2.0415784491450012e+01  2.0682922323567080e+01 
 2.0953555618784190e+01  2.1227730114772363e+01  2.1505492147673987e+01  2.1786888659933712e+01 
 2.2071967208231872e+01  2.2360775971521644e+01  2.2653363759171409e+01  2.2949780019213673e+01 
 2.3250074846701878e+01  2.3554298992176651e+01  2.3862503870242563e+01  2.4174741568257616e+01 
 2.4491064855135932e+01  2.4811527190265867e+01  2.5136182732544793e+01  2.5465086349532061e+01 
 2.5798293626721772e+01  2.6135860876936835e+01  2.6477845149845976e+01  2.6824304241605276e+01 
 2.7175296704625847e+01  2.7530881857469328e+01  2.7891119794872889e+01  2.8256071397905345e+01 
 2.8625798344256228e+01  2.9000363118659465e+01  2.9379829023453425e+01  2.9764260189279231e+01 
 3.0153721585918799e+01  3.0548279033275154e+01  3.0947999212495997e+01  3.1352949677242979e+01 
 3.1763198865108475e+01  3.2178816109181660e+01  3.2599871649765987e+01  3.3026436646249969e+01 
 3.3458583189133293e+01  3.3896384312210238e+01  3.4339914004912622e+01  3.4789247224814154e+01 
 3.5244459910298453e+01  3.5705628993392814e+01  3.6172832412769914e+01  3.6646149126919603e+01 
 3.7125659127493130e+01  3.7611443452821931e+01  3.8103584201613067e+01  3.8602164546824490e+01 
 3.9107268749721207e+01  3.9618982174115722e+01  4.0137391300794661e+01  4.0662583742134309e+01 
 4.1194648256907271e+01  4.1733674765282892e+01  4.2279754364024029e+01  4.2832979341882584e+01 
 4.3393443195196568e+01  4.3961240643691120e+01  4.4536467646486464e+01  4.5119221418315171e+01 
 4.5709600445951679e+01  4.6307704504856822e+01  4.6913634676040111e+01  4.7527493363142717e+01 
 4.8149384309743645e+01  4.8779412616893119e+01  4.9417684760874558e+01  5.0064308611199458e+01 
 5.0719393448837543e+01  5.1383049984685556e+01  5.2055390378277600e+01  5.2736528256740449e+01 
 5.3426578733996713e+01  5.4125658430219460e+01  5.4833885491541217e+01  5.5551379610020994e+01 
 5.6278262043872509e+01  5.7014655637957162e+01  5.7760684844545018e+01  5.8516475744347623e+01 
 5.9282156067825902e+01  6.0057855216777007e+01  6.0843704286203149e+01  6.1639836086467568e+01 
 6.2446385165739365e+01  6.3263487832732615e+01  6.4091282179742805e+01  6.4929908105984836e+01 
 6.5779507341236254e+01  6.6640223469789916e+01  6.7512201954720140e+01  6.8395590162466291e+01 
 6.9290537387738027e+01  7.0197194878746473e+01  7.1115715862765541e+01  7.2046255572027690e+01 
 7.2988971269958583e+01  7.3944022277754911e+01  7.4911570001310096e+01  7.5891777958492426e+01 
 7.6884811806779382e+01  7.7890839371254955e+01  7.8910030672972027e+01  7.9942557957686333e+01 