  <PP_INFO>

############################################################
#    Opium Parameter File                                  #
############################################################
#-----------------------------------------------------------
#Command line   : opium O O.log ae ps nl tc2 ke upf qmcpack rpt 
 
#Opium version  : 4.1 
#Compile Host   : py-garuda.cos.ncsu.edu 
#Compile OS     : Linux 5.15.0-113-generic x86_64 
#Compile Date   : Sat Jul 13 02:11:52 EDT 2024 
#-----------------------------------------------------------
#Execution Host : py-garuda.cos.ncsu.edu 
#Execution Date : Mon Jan 20 22:27:25 2025
 
#-----------------------------------------------------------
############################################################
[Atom]
O  
3
100   2.00   -
200   2.00   -
210   3.00   -

[Pseudo]
2  1.069 0.927
g

[XC]
pbe

[KBDesign]
p

[Relativity]
nrl

[Gaussinfo]
6   2
1   3
2  13.65512  85.86406
1  12.30997  6.000000
3  14.76962  73.85984
2  13.71419 -47.87600

[Configs]
10

200 2.00 -
210 4.00 -

200 1.00 -
210 5.00 -

200 2.00 -
210 3.00 -

200 1.00 -
210 4.00 -

200 2.00 -
210 2.00 -

200 1.00 -
210 3.00 -

200 2.00 -
210 1.00 -

200 1.00 -
210 2.00 -

200 2.00 -
210 0.00 -

200 1.00 -
210 1.00 -

############################################################
############################################################
  </PP_INFO>



<PP_HEADER>
   0         Version Number
   O        Element
   NC        Norm - Conserving pseudopotential
    F      Nonlinear Core Correction
SLA  PW   PBE  PBE     PBE  Exchange-Correlation functional
 6          Z valence
 0          Total energy
 0.000000   0.000000     Suggested cutoff for wfc and rho
 1           Max angular momentum component
 1130           Number of points in mesh
 2  1     Number of Wavefuncitons, Number of Projectors
 Wavefunctions         nl  l   occ
                      2S  0  2.000000
                      2P  1  3.000000
</PP_HEADER>
<PP_MESH>
  <PP_R>
 5.0000000000000009e-05  5.0654243367990460e-05  5.1317047423672103e-05  5.1988524182507883e-05 
 5.2668787125668225e-05  5.3357951219209659e-05  5.4056132933504183e-05  5.4763450262923291e-05 
 5.5480022745779141e-05  5.6205971484526852e-05  5.6941419166231099e-05  5.7686490083300517e-05 
 5.8441310154493449e-05  5.9206006946198454e-05  5.9980709693993451e-05  6.0765549324486566e-05 
 6.1560658477443416e-05  6.2366171528203268e-05  6.3182224610388901e-05  6.4008955638913503e-05 
 6.4846504333288587e-05  6.5695012241236955e-05  6.6554622762614576e-05  6.7425481173645578e-05 
 6.8307734651474022e-05  6.9201532299037602e-05  7.0107025170266043e-05  7.1024366295609773e-05 
 7.1953710707902313e-05  7.2895215468561300e-05  7.3849039694132113e-05  7.4815344583179110e-05 
 7.5794293443528482e-05  7.6786051719867504e-05  7.7790787021705414e-05  7.8808669151699581e-05 
 7.9839870134352638e-05  8.0884564245085029e-05  8.1942928039687926e-05  8.3015140384161615e-05 
 8.4101382484944379e-05  8.5201837919536436e-05  8.6316692667525528e-05  8.7446135142017493e-05 
 8.8590356221478737e-05  8.9749549281995021e-05  9.0923910229952565e-05  9.2113637535146681e-05 
 9.3318932264323603e-05  9.4539998115161292e-05  9.5777041450694861e-05  9.7030271334192132e-05 
 9.8299899564486325e-05  9.9586140711770176e-05  1.0088921215385896e-04  1.0220933411292785e-04 
 1.0354672969272992e-04  1.0490162491630129e-04  1.0627424876415963e-04  1.0766483321300200e-04 
 1.0907361327491011e-04  1.1050082703706741e-04  1.1194671570199664e-04  1.1341152362832352e-04 
 1.1489549837207399e-04  1.1639889072851173e-04  1.1792195477452322e-04  1.1946494791155725e-04 
 1.2102813090912659e-04  1.2261176794887811e-04  1.2421612666924087e-04  1.2584147821065713e-04 
 1.2748809726140589e-04  1.2915626210402580e-04  1.3084625466234571e-04  1.3255836054913031e-04 
 1.3429286911434955e-04  1.3605007349407901e-04  1.3783027066004131e-04  1.3963376146979454e-04 
 1.4146085071757800e-04  1.4331184718582325e-04  1.4518706369733898e-04  1.4708681716817882e-04 
 1.4901142866120094e-04  1.5096122344032838e-04  1.5293653102551959e-04  1.5493768524845798e-04 
 1.5696502430896989e-04  1.5901889083218195e-04  1.6109963192642500e-04  1.6320759924189635e-04 
 1.6534314903008944e-04  1.6750664220400129e-04  1.6969844439912779e-04  1.7191892603525631e-04 
 1.7416846237906848e-04  1.7644743360756049e-04  1.7875622487229412e-04  1.8109522636448828e-04 
 1.8346483338096221e-04  1.8586544639094158e-04  1.8829747110373873e-04  1.9076131853731866e-04 
 1.9325740508776174e-04  1.9578615259963617e-04  1.9834798843728976e-04  2.0094334555707661e-04 
 2.0357266258052724e-04  2.0623638386847661e-04  2.0893495959616230e-04  2.1166884582930515e-04 
 2.1443850460118566e-04  2.1724440399072798e-04  2.2008701820160743e-04  2.2296682764239134e-04 
 2.2588431900772945e-04  2.2883998536060636e-04  2.3183432621567057e-04  2.3486784762365330e-04 
 2.3794106225689265e-04  2.4105448949597616e-04  2.4420865551751748e-04  2.4740409338308176e-04 
 2.5064134312927317e-04  2.5392095185900409e-04  2.5724347383395562e-04  2.6060947056824943e-04 
 2.6401951092334508e-04  2.6747417120417868e-04  2.7097403525656047e-04  2.7451969456584481e-04 
 2.7811174835689413e-04  2.8175080369534871e-04  2.8543747559022197e-04  2.8917238709783873e-04 
 2.9295616942713333e-04  2.9678946204632513e-04  3.0067291279099035e-04  3.0460717797354788e-04 
 3.0859292249417751e-04  3.1263081995318997e-04  3.1672155276486579e-04  3.2086581227278683e-04 
 3.2506429886667361e-04  3.2931772210075341e-04  3.3362680081367623e-04  3.3799226325000059e-04 
 3.4241484718326883e-04  3.4689530004069119e-04  3.5143437902946479e-04  3.5603285126474223e-04 
 3.6069149389927598e-04  3.6541109425475938e-04  3.7019244995488562e-04  3.7503636906014803e-04 
 3.7994367020440444e-04  3.8491518273322812e-04  3.8995174684406910e-04  3.9505421372824955e-04 
 4.0022344571481771e-04  4.0546031641628186e-04  4.1076571087625511e-04  4.1614052571902860e-04 
 4.2158566930110367e-04  4.2710206186470493e-04  4.3269063569330556e-04  4.3835233526918392e-04 
 4.4408811743304374e-04  4.4989895154572243e-04  4.5578581965201537e-04  4.6174971664664384e-04 
 4.6779165044239461e-04  4.7391264214045951e-04  4.8011372620300409e-04  4.8639595062799406e-04 
 4.9276037712630964e-04  4.9920808130117685e-04  5.0574015282994799e-04  5.1235769564825738e-04 
 5.1906182813659231e-04  5.2585368330929961e-04  5.3273440900606923e-04  5.3970516808591999e-04 
 5.4676713862372771e-04  5.5392151410932149e-04  5.6116950364918652e-04  5.6851233217080602e-04 
 5.7595124062967678e-04  5.8348748621903351e-04  5.9112234258231801e-04  5.9885710002842722e-04 
 6.0669306574977916e-04  6.1463156404323088e-04  6.2267393653388855e-04  6.3082154240184463e-04 
 6.3907575861188351e-04  6.4743798014618942e-04  6.5590962024010492e-04  6.6449211062096945e-04 
 6.7318690175008496e-04  6.8199546306784570e-04  6.9091928324207998e-04  6.9995987041963697e-04 
 7.0911875248126708e-04  7.1839747729983774e-04  7.2779761300192751e-04  7.3732074823284338e-04 
 7.4696849242510534e-04  7.5674247607044438e-04  7.6664435099535954e-04  7.7667579064028078e-04 
 7.8683849034238366e-04  7.9713416762210621e-04  8.0756456247341396e-04  8.1813143765786074e-04 
 8.2883657900250382e-04  8.3968179570170949e-04  8.5066892062291336e-04  8.6179981061637611e-04 
 8.7307634682899996e-04  8.8450043502224412e-04  8.9607400589420360e-04  9.0779901540590196e-04 
 9.1967744511185345e-04  9.3171130249495009e-04  9.4390262130573152e-04  9.5625346190609303e-04 
 9.6876591161749255e-04  9.8144208507371187e-04  9.9428412457823597e-04  1.0072942004663060e-03 
 1.0204745114717135e-03  1.0338272850983867e-03  1.0473547779968507e-03  1.0610592763456016e-03 
 1.0749430962374799e-03  1.0890085840710897e-03  1.1032581169473533e-03  1.1176941030712421e-03 
 1.1323189821587701e-03  1.1471352258493116e-03  1.1621453381233146e-03  1.1773518557254784e-03 
 1.1927573485934714e-03  1.2083644202922545e-03  1.2241757084540913e-03  1.2401938852243132e-03 
 1.2564216577129197e-03  1.2728617684520846e-03  1.2895169958596533e-03  1.3063901547086963e-03 
 1.3234840966032200e-03  1.3408017104600900e-03  1.3583459229972665e-03  1.3761196992284231e-03 
 1.3941260429640473e-03  1.4123679973190874e-03  1.4308486452272468e-03  1.4495711099620078e-03 
 1.4685385556644720e-03  1.4877541878781072e-03  1.5072212540904926e-03  1.5269430442821517e-03 
 1.5469228914825669e-03  1.5671641723334685e-03  1.5876703076594968e-03  1.6084447630463285e-03 
 1.6294910494263708e-03  1.6508127236721109e-03  1.6724133891972456e-03  1.6942966965656603e-03 
 1.7164663441083861e-03  1.7389260785486207e-03  1.7616796956349424e-03  1.7847310407827944e-03 
 1.8080840097243712e-03  1.8317425491670063e-03  1.8557106574601751e-03  1.8799923852712255e-03 
 1.9045918362699506e-03  1.9295131678221181e-03  1.9547605916920754e-03  1.9803383747545480e-03 
 2.0062508397157511e-03  2.0325023658439374e-03  2.0590973897095053e-03  2.0860404059347831e-03 
 2.1133359679536422e-03  2.1409886887810291e-03  2.1690032417925821e-03  2.1973843615144340e-03 
 2.2261368444233690e-03  2.2552655497574329e-03  2.2847754003371555e-03  2.3146713833975220e-03 
 2.3449585514308245e-03  2.3756420230405468e-03  2.4067269838064205e-03  2.4382186871608020e-03 
 2.4701224552765091e-03  2.5024436799662882e-03  2.5351878235940393e-03  2.5683604199979704e-03 
 2.6019670754258285e-03  2.6360134694823657e-03  2.6705053560892125e-03  2.7054485644572995e-03 
 2.7408490000720089e-03  2.7767126456912164e-03  2.8130455623563934e-03  2.8498538904169258e-03 
 2.8871438505678674e-03  2.9249217449012362e-03  2.9631939579710903e-03  3.0019669578725296e-03 
 3.0412472973348212e-03  3.0810416148288251e-03  3.1213566356889121e-03  3.1621991732495641e-03 
 3.2035761299968324e-03  3.2454944987348913e-03  3.2879613637678273e-03  3.3309839020969063e-03 
 3.3745693846335039e-03  3.4187251774279053e-03  3.4634587429141894e-03  3.5087776411713927e-03 
 3.5546895312011870e-03  3.6012021722222564e-03  3.6483234249816408e-03  3.6960612530832098e-03 
 3.7444237243335335e-03  3.7934190121053598e-03  3.8430553967189365e-03  3.8933412668414021e-03 
 3.9442851209044926e-03  3.9958955685408006e-03  4.0481813320388050e-03  4.1011512478169882e-03 
 4.1548142679171890e-03  4.2091794615175277e-03  4.2642560164651167e-03  4.3200532408288307e-03 
 4.3765805644723895e-03  4.4338475406480284e-03  4.4918638476110278e-03  4.5506392902553393e-03 
 4.6101838017706667e-03  4.6705074453211757e-03  4.7316204157462037e-03  4.7935330412832078e-03 
 4.8562557853132609e-03  4.9197992481293902e-03  4.9841741687280516e-03  5.0493914266240489e-03 
 5.1154620436891819e-03  5.1823971860149925e-03  5.2502081657998462e-03  5.3189064432607232e-03 
 5.3885036285700235e-03  5.4590114838177122e-03  5.5304419249991420e-03  5.6028070240288826e-03 
 5.6761190107809121e-03  5.7503902751554706e-03  5.8256333691730161e-03  5.9018610090955225e-03 
 5.9790860775755664e-03  6.0573216258335240e-03  6.1365808758632578e-03  6.2168772226666698e-03 
 6.2982242365174817e-03  6.3806356652546525e-03  6.4641254366057770e-03  6.5487076605409318e-03 
 6.6343966316572750e-03  6.7212068315948741e-03  6.8091529314841361e-03  6.8982497944252612e-03 
 6.9885124780001452e-03  7.0799562368171476e-03  7.1725965250891595e-03  7.2664489992453783e-03 
 7.3615295205773212e-03  7.4578541579193944e-03  7.5554391903645702e-03  7.6543011100155935e-03 
 7.7544566247721870e-03  7.8559226611547243e-03  7.9587163671648517e-03  8.0628551151835526e-03 
 8.1683565049070865e-03  8.2752383663214305e-03  8.3835187627155482e-03  8.4932159937341524e-03 
 8.6043485984703717e-03  8.7169353585989165e-03  8.8309953015502131e-03  8.9465477037260939e-03 
 9.0636120937575629e-03  9.1822082558051417e-03  9.3023562329024954e-03  9.4240763303437176e-03 
 9.5473891191149816e-03  9.6723154393710854e-03  9.7988764039574888e-03  9.9270934019784346e-03 
 1.0056988102411759e-02  1.0188582457771003e-02  1.0321898707815415e-02  1.0456959383308564e-02 
 1.0593787309826066e-02  1.0732405611613169e-02  1.0872837715492798e-02  1.1015107354824751e-02 
 1.1159238573516689e-02  1.1305255730087621e-02  1.1453183501784548e-02  1.1603046888752952e-02 
 1.1754871218261929e-02  1.1908682148984525e-02  1.2064505675334113e-02  1.2222368131857524e-02 
 1.2382296197685636e-02  1.2544316901042222e-02  1.2708457623811769e-02  1.2874746106167113e-02 
 1.3043210451257527e-02  1.3213879129958308e-02  1.3386780985682361e-02  1.3561945239254828e-02 
 1.3739401493851472e-02  1.3919179740001680e-02  1.4101310360656944e-02  1.4285824136325641e-02 
 1.4472752250275034e-02  1.4662126293801260e-02  1.4853978271568419e-02  1.5048340607017378e-02 
 1.5245246147845429e-02  1.5444728171557625e-02  1.5646820391090763e-02  1.5851556960510941e-02 
 1.6058972480785687e-02  1.6269102005631603e-02  1.6481981047438497e-02  1.6697645583271116e-02 
 1.6916132060949322e-02  1.7137477405207855e-02  1.7361719023936725e-02  1.7588894814503212e-02 
 1.7819043170156621e-02  1.8052202986516830e-02  1.8288413668147770e-02  1.8527715135216800e-02 
 1.8770147830241439e-02  1.9015752724924156e-02  1.9264571327076718e-02  1.9516645687635097e-02 
 1.9772018407766191e-02  2.0030732646067514e-02  2.0292832125861106e-02  2.0558361142582887e-02 
 2.0827364571268638e-02  2.1099887874138076e-02  2.1375977108278016e-02  2.1655678933426147e-02 
 2.1939040619856638e-02  2.2226110056368927e-02  2.2516935758381033e-02  2.2811566876128789e-02 
 2.3110053202972370e-02  2.3412445183811394e-02  2.3718793923610367e-02  2.4029151196035454e-02 
 2.4343569452204374e-02  2.4662101829550767e-02  2.4984802160804544e-02  2.5311724983089742e-02 
 2.5642925547141437e-02  2.5978459826643263e-02  2.6318384527687019e-02  2.6662757098356256e-02 
 2.7011635738435055e-02  2.7365079409243955e-02  2.7723147843604554e-02  2.8085901555934496e-02 
 2.8453401852474552e-02  2.8825710841649529e-02  2.9202891444564748e-02  2.9585007405639779e-02 
 2.9972123303381545e-02  3.0364304561298135e-02  3.0761617458955566e-02  3.1164129143179186e-02 
 3.1571907639401646e-02  3.1985021863159359e-02  3.2403541631739391e-02  3.2827537675978784e-02 
 3.3257081652218100e-02  3.3692246154411715e-02  3.4133104726396225e-02  3.4579731874319591e-02 
 3.5032203079232827e-02  3.5490594809846482e-02  3.5954984535454051e-02  3.6425450739024451e-02 
 3.6902072930465879e-02  3.7384931660063028e-02  3.7874108532090479e-02  3.8369686218603892e-02 
 3.8871748473411821e-02  3.9380380146230270e-02  3.9895667197022554e-02  4.0417696710526675e-02 
 4.0946556910972910e-02  4.1482337176993900e-02  4.2025128056729741e-02  4.2575021283131044e-02 
 4.3132109789461859e-02  4.3696487725005687e-02  4.4268250470976912e-02  4.4847494656640452e-02 
 4.5434318175642335e-02  4.6028820202553979e-02  4.6631101209632937e-02  4.7241262983802816e-02 
 4.7859408643855732e-02  4.8485642657879482e-02  4.9120070860912940e-02  4.9762800472832408e-02 
 5.0413940116472059e-02  5.1073599835981455e-02  5.1741891115423239e-02  5.2418926897614279e-02 
 5.3104821603213087e-02  5.3799691150057456e-02  5.4503652972754654e-02  5.5216826042528207e-02 
 5.5939330887324341e-02  5.6671289612181451e-02  5.7412825919866170e-02  5.8164065131779422e-02 
 5.8925134209136108e-02  5.9696161774421601e-02  6.0477278133129607e-02  6.1268615295783889e-02 
 6.2070307000248390e-02  6.2882488734329264e-02  6.3705297758672660e-02  6.4538873129962024e-02 
 6.5383355724419126e-02  6.6238888261612422e-02  6.7105615328576840e-02  6.7983683404249637e-02 
 6.8873240884225487e-02  6.9774438105835751e-02  7.0687427373555822e-02  7.1612362984744937e-02 
 7.2549401255722831e-02  7.3498700548187523e-02  7.4460421295978949e-02  7.5434726032192340e-02 
 7.6421779416647101e-02  7.7421748263714521e-02  7.8434801570509749e-02  7.9461110545452809e-02 
 8.0500848637203193e-02  8.1554191563973061e-02  8.2621317343224102e-02  8.3702406321752965e-02 
 8.4797641206169935e-02  8.5907207093777360e-02  8.7031291503851083e-02  8.8170084409331842e-02 
 8.9323778268931120e-02  9.0492568059657080e-02  9.1676651309766183e-02  9.2876228132145938e-02 
 9.4091501258134522e-02  9.5322676071782519e-02  9.6569960644563843e-02  9.7833565770539935e-02 
 9.9113705001984603e-02  1.0041059468547482e-01  1.0172445399845381e-01  1.0305550498627257e-01 
 1.0440397259971609e-01  1.0577008473302060e-01  1.0715407226238795e-01  1.0855616908500469e-01 
 1.0997661215857098e-01  1.1141564154134705e-01  1.1287350043272361e-01  1.1435043521432314e-01 
 1.1584669549163899e-01  1.1736253413621929e-01  1.1889820732840288e-01  1.2045397460061411e-01 
 1.2203009888122496e-01  1.2362684653899017e-01  1.2524448742806432e-01  1.2688329493360781e-01 
 1.2854354601798962e-01  1.3022552126759451e-01  1.3192950494024297e-01  1.3365578501323144e-01 
 1.3540465323200074e-01  1.3717640515944240e-01  1.3897134022584914e-01  1.4078976177951927e-01 
 1.4263197713802339e-01  1.4449829764014174e-01  1.4638903869848122e-01  1.4830451985278081e-01 
 1.5024506482391461e-01  1.5221100156860146e-01  1.5420266233483029e-01  1.5622038371801097e-01 
 1.5826450671785988e-01  1.6033537679602869e-01  1.6243334393448974e-01  1.6455876269468278e-01 
 1.6671199227743699e-01  1.6889339658367677e-01  1.7110334427592180e-01  1.7334220884059201e-01 
 1.7561036865112747e-01  1.7790820703193463e-01  1.8023611232316894e-01  1.8259447794636527e-01 
 1.8498370247092705e-01  1.8740418968148551e-01  1.8985634864614023e-01  1.9234059378559265e-01 
 1.9485734494318405e-01  1.9740702745585015e-01  1.9999007222600448e-01  2.0260691579436041e-01 
 2.0525800041370962e-01  2.0794377412366263e-01  2.1066469082636885e-01  2.1342121036322706e-01 
 2.1621379859259982e-01  2.1904292746854445e-01  2.2190907512057462e-01  2.2481272593446525e-01 
 2.2775437063411483e-01  2.3073450636447901e-01  2.3375363677558925e-01  2.3681227210767081e-01 
 2.3991092927737470e-01  2.4305013196513767e-01  2.4623041070368559e-01  2.4945230296769461e-01 
 2.5271635326462627e-01  2.5602311322674853e-01  2.5937314170436593e-01  2.6276700486026450e-01 
 2.6620527626539536e-01  2.6968853699580941e-01  2.7321737573086052e-01  2.7679238885269392e-01 
 2.8041418054703615e-01  2.8408336290530367e-01  2.8780055602804805e-01  2.9156638812975433e-01 
 2.9538149564501082e-01  2.9924652333606777e-01  3.0316212440180423e-01  3.0712896058811978e-01 
 3.1114770229977134e-01  3.1521902871367319e-01  3.1934362789368004e-01  3.2352219690686906e-01 
 3.2775544194134948e-01  3.3204407842560762e-01  3.3638883114941676e-01  3.4079043438632806e-01 
 3.4524963201776487e-01  3.4976717765874021e-01  3.5434383478521958e-01  3.5898037686315026e-01 
 3.6367758747917889e-01  3.6843626047307926e-01  3.7325720007191360e-01  3.7814122102594827e-01 
 3.8308914874634908e-01  3.8810181944467720e-01  3.9318008027421136e-01  3.9832478947311850e-01 
 4.0353681650949885e-01  4.0881704222832521e-01  4.1416635900031235e-01  4.1958567087272647e-01 
 4.2507589372217258e-01  4.3063795540937955e-01  4.3627279593601059e-01  4.4198136760352635e-01 
 4.4776463517412551e-01  4.5362357603379222e-01  4.5955918035747667e-01  4.6557245127643682e-01 
 4.7166440504777019e-01  4.7783607122616351e-01  4.8408849283789013e-01  4.9042272655708380e-01 
 4.9683984288431915e-01  5.0334092632752880e-01  5.0992707558528882e-01  5.1659940373249769e-01 
 5.2335903840849385e-01  5.3020712200762621e-01  5.3714481187232210e-01  5.4417328048868108e-01 
 5.5129371568462759e-01  5.5850732083065724e-01  5.6581531504320870e-01  5.7321893339069763e-01 
 5.8071942710224622e-01  5.8831806377914342e-01  5.9601612760907319e-01  6.0381491958314493e-01 
 6.1171575771576414e-01  6.1971997726738004e-01  6.2782893097014758e-01  6.3604398925654260e-01 
 6.4436654049096942e-01  6.5279799120439286e-01  6.6133976633205205e-01  6.6999330945427416e-01 
 6.7876008304044277e-01  6.8764156869616000e-01  6.9663926741364024e-01  7.0575469982538230e-01 
 7.1498940646115927e-01  7.2434494800837212e-01  7.3382290557580954e-01  7.4342488096085868e-01 
 7.5315249692021335e-01  7.6300739744412327e-01  7.7299124803423280e-01  7.8310573598505395e-01 
 7.9335257066912401e-01  8.0373348382589305e-01  8.1425022985439355e-01  8.2490458610973239e-01 
 8.3569835320347641e-01  8.4663335530795469e-01  8.5771144046454939e-01  8.6893448089601877e-01 
 8.8030437332290778e-01  8.9182303928409778e-01  9.0349242546155206e-01  9.1531450400930858e-01 
 9.2729127288677982e-01  9.3942475619641186e-01  9.5171700452576291e-01  9.6417009529405728e-01 
 9.7678613310327445e-01  9.8956725009383162e-01  1.0025156063049203e+00  1.0156333900395589e+00 
 1.0289228182344214e+00  1.0423861368344998e+00  1.0560256211726831e+00  1.0698435763542875e+00 
 1.0838423376466271e+00  1.0980242708736787e+00  1.1123917728159118e+00  1.1269472716153508e+00 
 1.1416932271859364e+00  1.1566321316292567e+00  1.1717665096557188e+00  1.1870989190112302e+00 
 1.2026319509094650e+00  1.2183682304697838e+00  1.2343104171608861e+00  1.2504612052502668e+00 
 1.2668233242595537e+00  1.2833995394258022e+00  1.3001926521688312e+00  1.3172055005646588e+00 
 1.3344409598251581e+00  1.3519019427839667e+00  1.3695914003887630e+00  1.3875123221999852e+00 
 1.4056677368960726e+00  1.4240607127853206e+00  1.4426943583244318e+00  1.4615718226438517e+00 
 1.4806962960799810e+00  1.5000710107143480e+00  1.5196992409198400e+00  1.5395843039140786e+00 
 1.5597295603200383e+00  1.5801384147339992e+00  1.6008143163009325e+00  1.6217607592974137e+00 
 1.6429812837221665e+00  1.6644794758943200e+00  1.6862589690595216e+00  1.7083234440039539e+00 
 1.7306766296763978e+00  1.7533223038184347e+00  1.7762642936028938e+00  1.7995064762806525e+00 
 1.8230527798359024e+00  1.8469071836499864e+00  1.8710737191739248e+00  1.8955564706097403e+00 
 1.9203595756006966e+00  1.9454872259305709e+00  1.9709436682320753e+00  1.9967332047045474e+00 
 2.0228601938410331e+00  2.0493290511648805e+00  2.0761442499759801e+00  2.1033103221067462e+00 
 2.1308318586880302e+00  2.1587135109250184e+00  2.1869599908832997e+00  2.2155760722852169e+00 
 2.2445665913166359e+00  2.2739364474442727e+00  2.3036906042437164e+00  2.3338340902382839e+00 
 2.3643719997488524e+00  2.3953094937548127e+00  2.4266518007662858e+00  2.4584042177077543e+00 
 2.4905721108132557e+00  2.5231609165332869e+00  2.5561761424535789e+00  2.5896233682258925e+00 
 2.6235082465109949e+00  2.6578365039339564e+00  2.6926139420519908e+00  2.7278464383349137e+00 
 2.7635399471584536e+00  2.7997005008105558e+00  2.8363342105108531e+00  2.8734472674434763e+00 
 2.9110459438033800e+00  2.9491365938563572e+00  2.9877256550129268e+00  3.0268196489162698e+00 
 3.0664251825444029e+00  3.1065489493267746e+00  3.1471977302754697e+00  3.1883783951312163e+00 
 3.2300979035243893e+00  3.2723633061512030e+00  3.3151817459653037e+00  3.3585604593849196e+00 
 3.4025067775158711e+00  3.4470281273905172e+00  3.4921320332229535e+00  3.5378261176806158e+00 
 3.5841181031725351e+00  3.6310158131544381e+00  3.6785271734509331e+00  3.7266602135949918e+00 
 3.7754230681849603e+00  3.8248239782593236e+00  3.8748712926894640e+00  3.9255734695906375e+00 
 3.9769390777514166e+00  4.0289767980818354e+00  4.0816954250804844e+00  4.1351038683208019e+00 
 4.1892111539568200e+00  4.2440264262485776e+00  4.2995589491075652e+00  4.3558181076623175e+00 
 4.4128134098445333e+00  4.4705544879959360e+00  4.5290511004961616e+00  4.5883131334119511e+00 
 4.6483506021679162e+00  4.7091736532391719e+00  4.7707925658661141e+00  4.8332177537916357e+00 
 4.8964597670210734e+00  4.9605292936051857e+00  5.0254371614464572e+00  5.0911943401290394e+00 
 5.1578119427726383e+00  5.2253012279106574e+00  5.2936736013929249e+00  5.3629406183132744e+00 
 5.4331139849624357e+00  5.5042055608063931e+00  5.5762273604906678e+00  5.6491915558708268e+00 
 5.7231104780695494e+00  5.7979966195606227e+00  5.8738626362801947e+00  5.9507213497656597e+00 
 6.0285857493225272e+00  6.1074689942196478e+00  6.1873844159131579e+00  6.2683455202995315e+00 
 6.3503659899981040e+00  6.4334596866634719e+00  6.5176406533281419e+00  6.6029231167758402e+00 
 6.6893214899458808e+00  6.7768503743689434e+00  6.8655245626348327e+00  6.9553590408924206e+00 
 7.0463689913823471e+00  7.1385697950028568e+00  7.2319770339092084e+00  7.3266064941470956e+00 
 7.4224741683205258e+00  7.5195962582946088e+00  7.6179891779337101e+00  7.7176695558754336e+00 
 7.8186542383409003e+00  7.9209602919817996e+00  8.0246050067646966e+00  8.1296058988930717e+00 
 8.2359807137676100e+00  8.3437474289852034e+00  8.4529242573772390e+00  8.5635296500875313e+00 
 8.6755822996907188e+00  8.7891011433512798e+00  8.9041053660239768e+00  9.0206144036961646e+00 
 9.1386479466725117e+00  9.2582259429027136e+00  9.3793686013527395e+00  9.5020963954201978e+00 
 9.6264300663943896e+00  9.7523906269616383e+00  9.8799993647564772e+00  1.0009277845959312e+01 
 1.0140247918941165e+01  1.0272931717956091e+01  1.0407351666881922e+01  1.0543530483009960e+01 
 1.0681491180884267e+01  1.0821257076191108e+01  1.0962851789699464e+01  1.1106299251252926e+01 
 1.1251623703813918e+01  1.1398849707560807e+01  1.1548002144038637e+01  1.1699106220364174e+01 
 1.1852187473485957e+01  1.2007271774500110e+01  1.2164385333022624e+01  1.2323554701618832e+01 
 1.2484806780290866e+01  1.2648168821023816e+01  1.2813668432391385e+01  1.2981333584221799e+01 
 1.3151192612324776e+01  1.3323274223280347e+01  1.3497607499290357e+01  1.3674221903093335e+01 
 1.3853147282943906e+01  1.4034413877657126e+01  1.4218052321718934e+01  1.4404093650463452e+01 
 1.4592569305318033e+01  1.4783511139116941e+01  1.4976951421484547e+01  1.5172922844288975e+01 
 1.5371458527167112e+01  1.5572592023121901e+01  1.5776357324192871e+01  1.5982788867200886e+01 
 1.6191921539568042e+01  1.6403790685213728e+01  1.6618432110527820e+01  1.6835882090422068e+01 
 1.7056177374460656e+01  1.7279355193070849e+01  1.7505453263835211e+01  1.7734509797865829e+01 
 1.7966563506262137e+01  1.8201653606653164e+01  1.8439819829825410e+01  1.8681102426437452e+01 
 1.8925542173822393e+01  1.9173180382879334e+01  1.9424058905055002e+01  1.9678220139416766e+01 
 1.9935707039818155e+01  2.0196563122158189e+01  2.0460832471735639e+01  2.0728559750699574e+01 
 2.0999790205597357e+01  2.1274569675021414e+01  2.1552944597356124e+01  2.1834962018625841e+01 
 2.2120669600446028e+01  2.2410115628078024e+01  2.2703349018589410e+01  2.3000419329121105e+01 
 2.3301376765262642e+01  2.3606272189537041e+01  2.3915157129996683e+01  2.4228083788931681e+01 
 2.4545105051692193e+01  2.4866274495626165e+01  2.5191646399134036e+01  2.5521275750841916e+01 
 2.5855218258894794e+01  2.6193530360371344e+01  2.6536269230821937e+01  2.6883492793931424e+01 
 2.7235259731308446e+01  2.7591629492402568e+01  2.7952662304551648e+01  2.8318419183160241e+01 
 2.8688961942011368e+01  2.9064353203713196e+01  2.9444656410282423e+01  2.9829935833866120e+01 
 3.0220256587603874e+01  3.0615684636632068e+01  3.1016286809232142e+01  3.1422130808124738e+01 
 3.1833285221911620e+01  3.2249819536667303e+01  3.2671804147682373e+01  3.3099310371360460e+01 
 3.3532410457270863e+01  3.3971177600358985e+01  3.4415685953316199e+01  3.4866010639112183e+01 
 3.5322227763690663e+01  3.5784414428831518e+01  3.6252648745181219e+01  3.6727009845453658e+01 
 3.7207577897803823e+01  3.7694434119376346e+01  3.8187660790031451e+01  3.8687341266250392e+01 
 3.9193559995222948e+01  3.9706402529119153e+01  4.0225955539547869e+01  4.0752306832204425e+01 
 4.1285545361710064e+01  4.1825761246645420e+01  4.2373045784780814e+01  4.2927491468505863e+01 
 4.3489192000460598e+01  4.4058242309371899e+01  4.4634738566096352e+01  4.5218778199873476e+01 
 4.5810459914791451e+01  4.6409883706468342e+01  4.7017150878951647e+01  4.7632364061838857e+01 
 4.8255627227622156e+01  4.8887045709259979e+01  4.9526726217978570e+01  5.0174776861306398e+01 
 5.0831307161344611e+01  5.1496428073276519e+01  5.2170252004119284e+01  5.2852892831721000e+01 
 5.3544465924006275e+01  5.4245088158473806e+01  5.4954877941948588e+01  5.5673955230593478e+01 
 5.6402441550181742e+01  5.7140460016635252e+01  5.7888135356831398e+01  5.8645593929682214e+01 
 5.9412963747489329e+01  6.0190374497578368e+01  6.0977957564216418e+01  6.1775846050816256e+01 
 6.2584174802431164e+01  6.3403080428544087e+01  6.4232701326154881e+01  6.5073177703169861e+01 
 6.5924651602097114e+01  6.6787266924052176e+01  6.7661169453077562e+01  6.8546506880780768e+01 
 6.9443428831294028e+01  7.0352086886561850e+01  7.1272634611958281e+01  7.2205227582239885e+01 
 7.3150023407838319e+01  7.4107181761496818e+01  7.5076864405255265e+01  7.6059235217788398e+01 
 7.7054460222101667e+01  7.8062707613589552e+01  7.9084147788460939e+01  8.0118953372536481e+01 
 8.1167299250422843e+01  8.2229362595068565e+01  8.3305322897706674e+01  8.4395361998189230e+01 
 8.5499664115718602e+01  8.6618415879981171e+01  8.7751806362687503e+01  8.8900027109526917e+01 
 9.0063272172538504e+01  9.1241738142906556e+01  9.2435624184184917e+01  9.3645132065956133e+01 
 9.4870466197930966e+01  9.6111833664494142e+01  9.7369444259702078e+01  9.8643510522738609e+01 
 9.9934247773834571e+01  1.0124187415065748e+02  1.0256661064517732e+02  1.0390868114101464e+02 
 1.0526831245127751e+02  1.0664573435689341e+02  1.0804117964544280e+02  1.0945488415050092e+02 
 1.1088708679149349e+02  1.1233802961407581e+02  1.1380795783103829e+02  1.1529711986374818e+02 
 1.1680576738413333e+02  1.1833415535721542e+02 
  </PP_R>
  <PP_RAB>
 6.5000000000000013e-07  6.5850516378387596e-07  6.6712161650773727e-07  6.7585081437260243e-07 
 6.8469423263368687e-07  6.9365336584972550e-07  7.0272972813555430e-07  7.1192485341800278e-07 
 7.2124029569512884e-07  7.3067762929884900e-07  7.4023844916100429e-07  7.4992437108290664e-07 
 7.5973703200841483e-07  7.6967809030057986e-07  7.7974922602191484e-07  7.8995214121832527e-07 
 8.0028856020676433e-07  8.1076022986664247e-07  8.2136891993505566e-07  8.3211642330587547e-07 
 8.4300455633275163e-07  8.5403515913608035e-07  8.6521009591398940e-07  8.7653125525739243e-07 