  <PP_INFO>

############################################################
#    Opium Parameter File                                  #
############################################################
#-----------------------------------------------------------
#Command line   : opium Rb Rb.log ae ps nl tc2 ke upf qmcpack rpt 
 
#Opium version  : 4.1 
#Compile Host   : py-garuda.cos.ncsu.edu 
#Compile OS     : Linux 5.15.0-113-generic x86_64 
#Compile Date   : Sat Jul 13 02:11:52 EDT 2024 
#-----------------------------------------------------------
#Execution Host : py-garuda.cos.ncsu.edu 
#Execution Date : Fri Jun  6 19:43:50 2025
 
#-----------------------------------------------------------
############################################################
[Atom]
Rb
9            
100   2.00  -
200   2.00  -
210   6.00  -
300   2.00  -
310   6.00  -
320  10.00  -
400   2.00  -
410   6.00  -
500   1.00  -

[Pseudo]
3 -1 -1 -1
g

[Gaussinfo]
9 4 2
2 2 2 4  4 4
2 5.46265274 89.50025113
2 2.05698395 0.31983972
2 4.58824427 48.54597863
2 1.03203695 0.79002942
2 3.41395949 26.20671226
2 1.02406094 0.67489428
1 3.50030148 9.00000000
3 4.11287536 31.50271331
2 3.36693698 -10.46321493
2 1.70721830 -2.16767371
2 4.38825113 -39.04031515
2 4.32757729 39.03936921
2 1.35722315 -0.33168519
2 1.23070964 0.43713491
2 3.40970560 -10.48333899
2 3.41897549 10.48213195
2 1.02248420 -0.27941985
2 1.02772413 0.26069700

[KBdesign]
s

[Relativity]
frl

[XC]
pbe

[Configs]
4

400   2.00  -
410   6.00  -
500   1.00  -

400   2.00  -
410   6.00  -
500   0.00  -

400   2.00  -
410   5.00  -
500   2.00  -

400   2.00  -
410   5.00  -
500   1.00  -
############################################################
  </PP_INFO>



<PP_HEADER>
   0         Version Number
   Rb        Element
   NC        Norm - Conserving pseudopotential
    F      Nonlinear Core Correction
SLA  PW   PBE  PBE     PBE  Exchange-Correlation functional
 9          Z valence
 0          Total energy
 0.000000   0.000000     Suggested cutoff for wfc and rho
 1           Max angular momentum component
 1169           Number of points in mesh
 3  2     Number of Wavefuncitons, Number of Projectors
 Wavefunctions         nl  l   occ
                      4S  0  2.000000
                      4P  1  2.000000
                      4P  1  4.000000
</PP_HEADER>
<PP_MESH>
  <PP_R>
 3.0010006671856165e-05  3.0402683628624390e-05  3.0800498711287182e-05  3.1203519151540339e-05 
 3.1611813060797508e-05  3.2025449441701147e-05  3.2444498199784083e-05  3.2869030155283821e-05 
 3.3299117055111271e-05  3.3734831584976158e-05  3.4176247381671069e-05  3.4623439045516255e-05 
 3.5076482152967272e-05  3.5535453269387557e-05  3.6000429961988221e-05  3.6471490812936928e-05 
 3.6948715432638702e-05  3.7432184473190111e-05  3.7921979642009710e-05  3.8418183715646785e-05 
 3.8920880553770802e-05  3.9430155113343861e-05  3.9946093462978662e-05  4.0468782797484310e-05 
 4.0998311452602311e-05  4.1534768919935758e-05  4.2078245862073436e-05  4.2628834127912099e-05 
 4.3186626768179135e-05  4.3751718051158336e-05  4.4324203478621510e-05  4.4904179801968455e-05 
 4.5491745038578271e-05  4.6086998488374317e-05  4.6690040750606416e-05  4.7300973740852183e-05 
 4.7919900708241044e-05  4.8546926252903600e-05  4.9182156343649274e-05  4.9825698335875317e-05 
 5.0477660989710155e-05  5.1138154488393917e-05  5.1807290456899974e-05  5.2485181980799614e-05 
 5.3171943625373813e-05  5.3867691454975075e-05  5.4572543052642546e-05  5.5286617539973834e-05 
 5.6010035597256893e-05  5.6742919483865180e-05  5.7485393058919942e-05  5.8237581802222391e-05 
 5.8999612835460495e-05  5.9771614943692594e-05  6.0553718597112385e-05  6.1346055973098801e-05 
 6.2148760978554234e-05  6.2961969272535087e-05  6.3785818289178631e-05  6.4620447260929425e-05 
 6.5465997242070210e-05  6.6322611132560335e-05  6.7190433702186075e-05  6.8069611615027235e-05 
 6.8960293454243575e-05  6.9862629747185866e-05  7.0776772990835242e-05  7.1702877677575635e-05 
 7.2641100321303400e-05  7.3591599483878223e-05  7.4554535801920970e-05  7.5530072013961245e-05 
 7.6518372987940746e-05  7.7519605749076347e-05  7.8533939508087703e-05  7.9561545689794301e-05 
 8.0602597962086718e-05  8.1657272265276643e-05  8.2725746841831601e-05  8.3808202266498101e-05 
 8.4904821476819293e-05  8.6015789804051731e-05  8.7141295004486969e-05  8.8281527291182672e-05 
 8.9436679366109161e-05  9.0606946452716471e-05  9.1792526328927590e-05  9.2993619360563469e-05 
 9.4210428535205010e-05  9.5443159496498949e-05  9.6692020578911732e-05  9.7957222842938720e-05 
 9.9238980110773832e-05  1.0053750900244603e-04  1.0185302897242875e-04  1.0318576234672776e-04 
 1.0453593436045548e-04  1.0590377319589573e-04  1.0728951002106733e-04  1.0869337902879191e-04 
 1.1011561747627309e-04  1.1155646572519359e-04  1.1301616728233686e-04  1.1449496884074021e-04 
 1.1599312032138676e-04  1.1751087491544260e-04  1.1904848912704627e-04  1.2060622281665936e-04 
 1.2218433924498289e-04  1.2378310511744944e-04  1.2540279062929656e-04  1.2704366951123082e-04 
 1.2870601907568881e-04  1.3039012026370324e-04  1.3209625769238333e-04  1.3382471970301534e-04 
 1.3557579840979293e-04  1.3734978974918525e-04  1.3914699352995100e-04  1.4096771348380666e-04 
 1.4281225731675783e-04  1.4468093676110250e-04  1.4657406762811446e-04  1.4849196986141617e-04 
 1.5043496759104954e-04  1.5240338918825558e-04  1.5439756732096930e-04  1.5641783901004135e-04 
 1.5846454568619573e-04  1.6053803324773199e-04  1.6263865211898332e-04  1.6476675730953835e-04 
 1.6692270847423952e-04  1.6910686997396500e-04  1.7131961093720679e-04  1.7356130532245425e-04 
 1.7583233198139391e-04  1.7813307472293636e-04  1.8046392237808093e-04  1.8282526886562899e-04 
 1.8521751325875716e-04  1.8764105985246186e-04  1.9009631823188532e-04  1.9258370334153757e-04 
 1.9510363555542241e-04  1.9765654074808164e-04  2.0024285036656899e-04  2.0286300150336564e-04 
 2.0551743697025011e-04  2.0820660537313373e-04  2.1093096118787730e-04  2.1369096483709769e-04 
 2.1648708276798077e-04  2.1931978753111179e-04  2.2218955786033792e-04  2.2509687875367501e-04 
 2.2804224155527391e-04  2.3102614403845817e-04  2.3404909048984954e-04  2.3711159179459318e-04 
 2.4021416552269881e-04  2.4335733601651058e-04  2.4654163447932311e-04  2.4976759906515558e-04 
 2.5303577496970135e-04  2.5634671452246638e-04  2.5970097728011564e-04  2.6309913012103876e-04 
 2.6654174734115372e-04  2.7002941075096441e-04  2.7356270977388819e-04  2.7714224154586948e-04 
 2.8076861101629732e-04  2.8444243105024339e-04  2.8816432253203747e-04  2.9193491447019845e-04 
 2.9575484410373820e-04  2.9962475700985662e-04  3.0354530721304586e-04  3.0751715729562102e-04 
 3.1154097850969982e-04  3.1561745089064434e-04  3.1974726337198974e-04  3.2393111390187416e-04 
 3.2816970956099542e-04  3.3246376668210812e-04  3.3681401097108597e-04  3.4122117762956791e-04 
 3.4568601147920864e-04  3.5020926708755550e-04  3.5479170889557210e-04  3.5943411134683068e-04 
 3.6413725901839479e-04  3.6890194675341496e-04  3.7372897979545873e-04  3.7861917392459902e-04 
 3.8357335559528321e-04  3.8859236207600437e-04  3.9367704159080382e-04  3.9882825346262155e-04 
 4.0404686825852457e-04  4.0933376793683365e-04  4.1468984599617794e-04  4.2011600762649758e-04 
 4.2561316986202281e-04  4.3118226173625523e-04  4.3682422443897667e-04  4.4254001147531213e-04 
 4.4833058882687499e-04  4.5419693511501973e-04  4.6014004176623153e-04  4.6616091317967968e-04 
 4.7226056689696325e-04  4.7844003377407827e-04  4.8470035815563510e-04  4.9104259805135347e-04 
 4.9746782531487148e-04  5.0397712582488921e-04  5.1057159966868594e-04  5.1725236132803623e-04 
 5.2402053986756161e-04  5.3087727912554420e-04  5.3782373790723823e-04  5.4486109018071142e-04 
 5.5199052527524705e-04  5.5921324808234495e-04  5.6653047925935040e-04  5.7394345543574830e-04 
 5.8145342942215561e-04  5.8906167042205066e-04  5.9676946424627069e-04  6.0457811353031746e-04 
 6.1248893795450541e-04  6.2050327446699048e-04  6.2862247750971830e-04  6.3684791924732752e-04 
 6.4518098979904944e-04  6.5362309747364036e-04  6.6217566900739037e-04  6.7084014980524505e-04 
 6.7961800418508099e-04  6.8851071562518133e-04  6.9751978701494406e-04  7.0664674090887680e-04 
 7.1589311978391087e-04  7.2526048630008357e-04  7.3475042356463079e-04  7.4436453539953749e-04 
 7.5410444661258623e-04  7.6397180327195428e-04  7.7396827298440221e-04  7.8409554517710361e-04 
 7.9435533138316316e-04  8.0474936553086903e-04  8.1527940423673124e-04  8.2594722710235303e-04 
 8.3675463701518950e-04  8.4770346045323836e-04  8.5879554779372019e-04  8.7003277362579588e-04 
 8.8141703706737630e-04  8.9295026208607874e-04  9.0463439782438181e-04  9.1647141892903499e-04 
 9.2846332588477731e-04  9.4061214535242699e-04  9.5291993051138896e-04  9.6538876140664885e-04 
 9.7802074530030565e-04  9.9081801702770181e-04  1.0037827393582183e-03  1.0169171033607865e-03 
 1.0302233287741839e-03  1.0437036643821749e-03  1.0573603883935626e-03  1.0711958088272084e-03 
 1.0852122639020960e-03  1.0994121224324935e-03  1.1137977842282886e-03  1.1283716805005652e-03 
 1.1431362742724798e-03  1.1580940607955220e-03  1.1732475679712142e-03  1.1885993567783361e-03 
 1.2041520217057349e-03  1.2199081911908002e-03  1.2358705280636770e-03  1.2520417299972876e-03 
 1.2684245299632477e-03  1.2850216966937451e-03  1.3018360351494602e-03  1.3188703869936105e-03 
 1.3361276310722020e-03  1.3536106839005576e-03  1.3713225001562169e-03  1.3892660731782834e-03 
 1.4074444354733040e-03  1.4258606592277734e-03  1.4445178568273387e-03  1.4634191813828008e-03 
 1.4825678272629950e-03  1.5019670306346516e-03  1.5216200700093124e-03  1.5415302667974077e-03 
 1.5617009858695833e-03  1.5821356361253700e-03  1.6028376710692975e-03  1.6238105893945445e-03 
 1.6450579355742254e-03  1.6665833004604156e-03  1.6883903218910144e-03  1.7104826853045437e-03 
 1.7328641243630036e-03  1.7555384215828653e-03  1.7785094089743257e-03  1.8017809686889270e-03 
 1.8253570336756498e-03  1.8492415883455903e-03  1.8734386692453350e-03  1.8979523657391493e-03 
 1.9227868207000818e-03  1.9479462312101312e-03  1.9734348492695558e-03  1.9992569825154722e-03 
 2.0254169949498594e-03  2.0519193076770819e-03  2.0787683996510674e-03  2.1059688084322640e-03 
 2.1335251309544975e-03  2.1614420243018561e-03  2.1897242064957633e-03  2.2183764572923236e-03 
 2.2474036189901168e-03  2.2768105972485572e-03  2.3066023619169622e-03  2.3367839478744680e-03 
 2.3673604558809361e-03  2.3983370534389975e-03  2.4297189756673624e-03  2.4615115261855808e-03 
 2.4937200780103599e-03  2.5263500744636186e-03  2.5594070300924187e-03  2.5928965316009407e-03 
 2.6268242387946479e-03  2.6611958855368074e-03  2.6960172807175289e-03  2.7312943092354701e-03 
 2.7670329329924177e-03  2.8032391919008471e-03  2.8399192049046880e-03  2.8770791710134402e-03 
 2.9147253703498202e-03  2.9528641652111181e-03  2.9915020011444392e-03  3.0306454080360201e-03 
 3.0703010012147858e-03  3.1104754825703701e-03  3.1511756416857419e-03  3.1924083569846609e-03 
 3.2341805968941510e-03  3.2764994210221789e-03  3.3193719813507452e-03  3.3628055234445862e-03 
 3.4068073876756953e-03  3.4513850104638494e-03  3.4965459255334019e-03  3.5422977651864878e-03 
 3.5886482615929004e-03  3.6356052480968530e-03  3.6831766605408258e-03  3.7313705386067472e-03 
 3.7801950271747157e-03  3.8296583776995098e-03  3.8797689496050895e-03  3.9305352116973781e-03 
 3.9819657435954973e-03  4.0340692371817477e-03  4.0868544980705570e-03  4.1403304470966490e-03 
 4.1945061218226880e-03  4.2493906780666450e-03  4.3049933914491604e-03  4.3613236589611273e-03 
 4.4183910005518301e-03  4.4762050607378250e-03  4.5347756102328855e-03  4.5941125475992802e-03 
 4.6542259009206511e-03  4.7151258294967852e-03  4.7768226255605600e-03  4.8393267160173588e-03 
 4.9026486642072273e-03  4.9667991716901240e-03  5.0317890800544978e-03  5.0976293727495476e-03 
 5.1643311769414418e-03  5.2319057653938466e-03  5.3003645583730458e-03  5.3697191255779901e-03 
 5.4399811880956129e-03  5.5111626203817000e-03  5.5832754522677323e-03  5.6563318709939329e-03 
 5.7303442232689494e-03  5.8053250173564722e-03  5.8812869251891635e-03  5.9582427845102422e-03 
 6.0362056010430983e-03  6.1151885506892890e-03  6.1952049817552814e-03  6.2762684172083779e-03 
 6.3583925569621084e-03  6.4415912801915540e-03  6.5258786476789631e-03  6.6112689041900527e-03 
 6.6977764808814092e-03  6.7854159977393915e-03  6.8742022660509446e-03  6.9641502909067203e-03 
 7.0552752737370094e-03  7.1475926148807994e-03  7.2411179161884654e-03  7.3358669836585287e-03 
 7.4318558301089029e-03  7.5291006778831016e-03  7.6276179615918493e-03  7.7274243308905833e-03 
 7.8285366532932481e-03  7.9309720170229921e-03  8.0347477339000970e-03  8.1398813422677053e-03 
 8.2463906099558629e-03  8.3542935372843113e-03  8.4636083601045860e-03  8.5743535528819241e-03 
 8.6865478318174996e-03  8.8002101580114695e-03  8.9153597406674938e-03  9.0320160403391091e-03 
 9.1501987722186155e-03  9.2699279094689835e-03  9.3912236865993752e-03  9.5141066028848267e-03 
 9.6385974258306577e-03  9.7647171946822573e-03  9.8924872239807230e-03  1.0021929107165116e-02 
 1.0153064720221780e-02  1.0285916225381438e-02  1.0420506074864663e-02  1.0556857014676351e-02 
 1.0694992088449862e-02  1.0834934641341436e-02  1.0976708323975598e-02  1.1120337096442131e-02 
 1.1265845232345442e-02  1.1413257322906817e-02  1.1562598281120422e-02  1.1713893345963639e-02 
 1.1867168086662523e-02  1.2022448407013062e-02  1.2179760549758976e-02  1.2339131101026819e-02 
 1.2500586994819048e-02  1.2664155517566011e-02  1.2829864312737355e-02  1.2997741385513871e-02 
 1.3167815107520421e-02  1.3340114221620816e-02  1.3514667846775427e-02  1.3691505482962357e-02 
 1.3870657016163031e-02  1.4052152723412930e-02  1.4236023277918569e-02  1.4422299754241289e-02 
 1.4611013633548940e-02  1.4802196808936291e-02  1.4995881590815012e-02  1.5192100712374229e-02 
 1.5390887335112504e-02  1.5592275054442231e-02  1.5796297905367268e-02  1.6002990368235027e-02 
 1.6212387374563687e-02  1.6424524312945693e-02  1.6639437035028546e-02  1.6857161861573790e-02 
 1.7077735588595315e-02  1.7301195493577975e-02  1.7527579341777587e-02  1.7756925392603276e-02 
 1.7989272406083511e-02  1.8224659649416587e-02  1.8463126903606870e-02  1.8704714470187889e-02 
 1.8949463178033400e-02  1.9197414390257551e-02  1.9448610011205358e-02  1.9703092493534653e-02 
 1.9960904845390603e-02  2.0222090637674311e-02  2.0486694011406313e-02  2.0754759685186561e-02 
 2.1026332962751942e-02  2.1301459740632731e-02  2.1580186515909223e-02  2.1862560394069832e-02 
 2.2148629096972072e-02  2.2438440970907560e-02  2.2732044994772792e-02  2.3029490788346606e-02 
 2.3330828620676064e-02  2.3636109418572047e-02  2.3945384775215996e-02  2.4258706958879290e-02 
 2.4576128921756701e-02  2.4897704308915476e-02  2.5223487467361382e-02  2.5553533455223609e-02 
 2.5887898051059656e-02  2.6226637763282032e-02  2.6569809839708334e-02  2.6917472277236270e-02 
 2.7269683831645242e-02  2.7626504027526252e-02  2.7987993168341684e-02  2.8354212346616676e-02 
 2.8725223454264020e-02  2.9101089193043942e-02  2.9481873085160894e-02  2.9867639483998946e-02 
 3.0258453584997669e-02  3.0654381436670305e-02  3.1055489951766126e-02  3.1461846918578895e-02 
 3.1873521012403122e-02  3.2290581807140506e-02  3.2713099787057998e-02  3.3141146358699851e-02 
 3.3574793862955456e-02  3.4014115587285162e-02  3.4459185778106007e-02  3.4910079653339539e-02 
 3.5366873415123887e-02  3.5829644262691938e-02  3.6298470405418407e-02  3.6773431076037262e-02 
 3.7254606544032287e-02  3.7742078129202820e-02  3.8235928215406993e-02  3.8736240264484779e-02 
 3.9243098830363254e-02  3.9756589573346469e-02  4.0276799274592073e-02  4.0803815850777768e-02 
 4.1337728368959263e-02  4.1878627061622917e-02  4.2426603341935161e-02  4.2981749819191617e-02 
 4.3544160314468235e-02  4.4113929876477311e-02  4.4691154797630979e-02  4.5275932630314673e-02 
 4.5868362203373994e-02  4.6468543638816820e-02  4.7076578368734238e-02  4.7692569152442778e-02 
 4.8316620093851015e-02  4.8948836659053342e-02  4.9589325694154009e-02  5.0238195443324432e-02 
 5.0895555567096497e-02  5.1561517160895742e-02  5.2236192773816581e-02  5.2919696427643388e-02 
 5.3612143636120470e-02  5.4313651424474127e-02  5.5024338349190287e-02  5.5744324518050690e-02 
 5.6473731610431586e-02  5.7212682897867538e-02  5.7961303264884946e-02  5.8719719230107638e-02 
 5.9488058967638827e-02  6.0266452328722873e-02  6.1055030863690470e-02  6.1853927844190908e-02 
 6.2663278285715357e-02  6.3483218970414798e-02  6.4313888470216393e-02  6.5155427170242725e-02 
 6.6007977292537046e-02  6.6871682920099179e-02  6.7746690021235886e-02  6.8633146474229856e-02 
 6.9531202092331504e-02  7.0441008649077749e-02  7.1362719903942162e-02  7.2296491628320442e-02 
 7.3242481631856551e-02  7.4200849789112650e-02  7.5171758066588309e-02  7.6155370550093276e-02 
 7.7151853472478354e-02  7.8161375241729156e-02  7.9184106469427445e-02  8.0220219999584980e-02 
 8.1269890937854250e-02  8.2333296681122214e-02  8.3410616947490496e-02  8.4502033806648266e-02 
 8.5607731710642343e-02  8.6727897525050224e-02  8.7862720560560617e-02  8.9012392604967530e-02 
 9.0177107955582772e-02  9.1357063452072756e-02  9.2552458509724780e-02  9.3763495153148774e-02 
 9.4990378050419988e-02  9.6233314547667842e-02  9.7492514704118863e-02  9.8768191327596497e-02 
 1.0006056001048634e-01  1.0136983916617177e-01  1.0269625006594631e-01  1.0404001687640900e-01 
 1.0540136669734911e-01  1.0678052960012652e-01  1.0817773866655434e-01  1.0959323002829029e-01 
 1.1102724290674350e-01  1.1248001965350354e-01  1.1395180579129835e-01  1.1544285005548821e-01 
 1.1695340443610261e-01  1.1848372422042711e-01  1.2003406803614780e-01  1.2160469789505911e-01 
 1.2319587923734560e-01  1.2480788097644133e-01  1.2644097554447689e-01  1.2809543893832123e-01 
 1.2977155076622568e-01  1.3146959429507848e-01  1.3318985649827750e-01  1.3493262810422946e-01 
 1.3669820364548374e-01  1.3848688150850907e-01  1.4029896398412151e-01  1.4213475731857234e-01 
 1.4399457176530453e-01  1.4587872163738605e-01  1.4778752536062972e-01  1.4972130552740798e-01 
 1.5168038895117184e-01  1.5366510672168218e-01  1.5567579426096631e-01  1.5771279138000396e-01 
 1.5977644233615654e-01  1.6186709589134735e-01  1.6398510537100311e-01  1.6613082872376700e-01 
 1.6830462858199263e-01  1.7050687232302994e-01  1.7273793213131269e-01  1.7499818506125861e-01 
 1.7728801310099251e-01  1.7960780323690306e-01  1.8195794751904465e-01  1.8433884312739446e-01 
 1.8675089243897705e-01  1.8919450309586702e-01  1.9167008807408178e-01  1.9417806575337404e-01 
 1.9671885998794125e-01  1.9929290017805629e-01  2.0190062134263784e-01  2.0454246419276928e-01 
 2.0721887520618015e-01  2.0993030670270185e-01  2.1267721692071073e-01  2.1546007009457158e-01 
 2.1827933653309420e-01  2.2113549269901689e-01  2.2402902128952951e-01  2.2696041131785086e-01 
 2.2993015819587265e-01  2.3293876381788556e-01  2.3598673664540049e-01  2.3907459179307972e-01 
 2.4220285111579312e-01  2.4537204329681084e-01  2.4858270393715493e-01  2.5183537564611530e-01 
 2.5513060813295241e-01  2.5846895829979949e-01  2.6185099033578041e-01  2.6527727581235877e-01 
 2.6874839377993492e-01  2.7226493086570708e-01  2.7582748137281249e-01  2.7943664738076590e-01 
 2.8309303884721299e-01  2.8679727371101404e-01  2.9054997799667753e-01  2.9435178592015948e-01 
 2.9820333999604764e-01  3.0210529114614798e-01  3.0605829880949237e-01  3.1006303105378341e-01 
 3.1412016468830251e-01  3.1823038537829029e-01  3.2239438776082618e-01  3.2661287556222346e-01 
 3.3088656171696096e-01  3.3521616848817065e-01  3.3960242758970177e-01  3.4404608030978218e-01 
 3.4854787763629791e-01  3.5310858038371179e-01  3.5772895932164317e-01  3.6240979530512940e-01 
 3.6715187940659255e-01  3.7195601304953241e-01  3.7682300814396896e-01  3.8175368722365705e-01 
 3.8674888358509729e-01  3.9180944142836255e-01  3.9693621599977352e-01  4.0213007373643511e-01 
 4.0739189241266660e-01  4.1272256128834794e-01  4.1812298125920666e-01  4.2359406500907132e-01 
 4.2913673716411732e-01  4.3475193444913107e-01  4.4044060584581829e-01  4.4620371275318477e-01 
 4.5204222915001457e-01  4.5795714175947488e-01  4.6394945021587491e-01  4.7002016723360601e-01 
 4.7617031877829297e-01  4.8240094424018493e-01  4.8871309660981527e-01  4.9510784265595631e-01 
 5.0158626310591059e-01  5.0814945282815371e-01  5.1479852101736978e-01  5.2153459138190794e-01 
 5.2835880233369237e-01  5.3527230718061636e-01  5.4227627432145364e-01  5.4937188744332133e-01 
 5.5656034572172508e-01  5.6384286402322337e-01  5.7122067311074209e-01  5.7869501985157701e-01 
 5.8626716742811702e-01  5.9393839555132477e-01  6.0171000067701175e-01  6.0958329622494101e-01 
 6.1755961280080063e-01  6.2564029842107416e-01  6.3382671874086527e-01  6.4212025728469257e-01 
 6.5052231568030916e-01  6.5903431389558187e-01  6.6765769047846835e-01  6.7639390280013556e-01 
 6.8524442730125890e-01  6.9421075974154411e-01  7.0329441545251448e-01  7.1249692959360511e-01 
 7.2181985741160870e-01  7.3126477450351590e-01  7.4083327708279501e-01  7.5052698224915604e-01 
 7.6034752826184404e-01  7.7029657481650893e-01  7.8037580332569956e-01  7.9058691720302088e-01 
 8.0093164215102264e-01  8.1141172645284287e-01  8.2202894126767201e-01  8.3278508093008374e-01 
 8.4368196325328182e-01  8.5472142983631427e-01  8.6590534637530869e-01  8.7723560297877923e-01 
 8.8871411448705862e-01  9.0034282079591210e-01  9.1212368718438286e-01  9.2405870464693041e-01 
 9.3614989022991246e-01  9.4839928737247059e-01  9.6080896625187695e-01  9.7338102413339800e-01 
 9.8611758572474040e-01  9.9902080353512368e-01  1.0120928582390707e+00  1.0253359590449389e+00 
 1.0387523440682846e+00  1.0523442807101089e+00  1.0661140660400541e+00  1.0800640271846151e+00 
 1.0941965217204270e+00  1.1085139380727032e+00  1.1230186959188841e+00  1.1377132465975683e+00 
 1.1526000735227955e+00  1.1676816926037472e+00  1.1829606526699445e+00  1.1984395359020041e+00 
 1.2141209582680328e+00  1.2300075699657345e+00  1.2461020558702993e+00  1.2624071359881477e+00 
 1.2789255659166290e+00  1.2956601373097165e+00  1.3126136783498064e+00  1.3297890542256845e+00 
 1.3471891676167538e+00  1.3648169591835904e+00  1.3826754080649257e+00  1.4007675323811251e+00 
 1.4190963897442592e+00  1.4376650777748468e+00  1.4564767346253600e+00  1.4755345395105808e+00 
 1.4948417132448937e+00  1.5144015187866127e+00  1.5342172617894290e+00  1.5542922911610730e+00 
 1.5746299996292923e+00  1.5952338243152178e+00  1.6161072473142633e+00  1.6372537962845966e+00 
 1.6586770450433244e+00  1.6803806141704762e+00  1.7023681716208916e+00  1.7246434333441114e+00 
 1.7472101639123849e+00  1.7700721771568886e+00  1.7932333368122748e+00  1.8166975571696515e+00 
 1.8404688037381054e+00  1.8645510939148850e+00  1.8889484976643482e+00  1.9136651382057968e+00 
 1.9387051927103105e+00  1.9640728930066977e+00  1.9897725262966905e+00  2.0158084358794746e+00 
 2.0421850218857416e+00  2.0689067420213054e+00  2.0959781123204690e+00  2.1234037079092456e+00 
 2.1511881637785644e+00  2.1793361755675980e+00  2.2078525003573337e+00  2.2367419574745324e+00 
 2.2660094293062061e+00  2.2956598621247548e+00  2.3256982669238946e+00  2.3561297202655314e+00 
 2.3869593651377099e+00  2.4181924118237910e+00  2.4498341387830020e+00  2.4818898935425096e+00 
 2.5143650936011683e+00  2.5472652273450738e+00  2.5805958549751375e+00  2.6143626094467605e+00 
 2.6485711974218153e+00  2.6832274002330907e+00  2.7183370748613460e+00  2.7539061549251582e+00 
 2.7899406516837155e+00  2.8264466550527358e+00  2.8634303346336774e+00  2.9008979407564128e+00 
 2.9388558055355536e+00  2.9773103439405912e+00  3.0162680548800411e+00  3.0557355222997757e+00 
 3.0957194162957253e+00  3.1362264942411402e+00  3.1772636019286100e+00  3.2188376747269949e+00 
 3.2609557387535539e+00  3.3036249120613528e+00  3.3468524058422360e+00  3.3906455256455397e+00 
 3.4350116726127413e+00  3.4799583447282756e+00  3.5254931380867056e+00  3.5716237481764872e+00 
 3.6183579711805200e+00  3.6657037052937254e+00  3.7136689520578541e+00  3.7622618177137719e+00 
 3.8114905145714308e+00  3.8613633623977690e+00  3.9118887898227697e+00  3.9630753357639246e+00 
 4.0149316508693333e+00  4.0674664989796581e+00  4.1206887586092735e+00  4.1746074244467328e+00 
 4.2292316088748922e+00  4.2845705435109318e+00  4.3406335807665171e+00  4.3974301954283801e+00 
 4.4549699862595800e+00  4.5132626776217162e+00  4.5723181211183741e+00  4.6321462972600589e+00 
 4.6927573171509369e+00  4.7541614241976307e+00  4.8163689958403779e+00  4.8793905453068458e+00 
 4.9432367233888925e+00  5.0079183202425730e+00  5.0734462672117138e+00  5.1398316386752976e+00 
 5.2070856539191137e+00  5.2752196790318093e+00  5.3442452288257956e+00  5.4141739687832739e+00 
 5.4850177170277341e+00  5.5567884463212440e+00  5.6294982860878777e+00  5.7031595244636097e+00 
 5.7777846103730477e+00  5.8533861556333253e+00  5.9299769370855300e+00  6.0075698987540207e+00 
 6.0861781540339992e+00  6.1658149879077007e+00  6.2464938591895960e+00  6.3282284028009537e+00 
 6.4110324320741920e+00  6.4949199410873169e+00  6.5799051070290231e+00  6.6660022925946283e+00 
 6.7532260484134126e+00  6.8415911155077094e+00  6.9311124277841758e+00  7.0218051145576554e+00 
 7.1136845031080718e+00  7.2067661212707694e+00  7.3010657000607635e+00  7.3965991763313097e+00 
 7.4933826954672771e+00  7.5914326141137556e+00  7.6907655029403630e+00  7.7913981494417319e+00 
 7.8933475607746386e+00  7.9966309666322477e+00  8.1012658221559875e+00  8.2072698108854532e+00 
 8.3146608477470547e+00  8.4234570820816224e+00  8.5336769007117041e+00  8.6453389310489825e+00 
 8.7584620442423518e+00  8.8730653583671852e+00  8.9891682416563352e+00  9.1067903157734182e+00 
 9.2259514591289058e+00  9.3466718102396449e+00  9.4689717711322974e+00  9.5928720107913410e+00 
 9.7183934686521702e+00  9.8455573581399172e+00  9.9743851702545694e+00  1.0104898677202998e+01 
 1.0237119936078528e+01  1.0371071292588573e+01  1.0506775384831217e+01  1.0644255147121040e+01 
 1.0783533813865084e+01  1.0924634923489524e+01  1.1067582322417723e+01  1.1212400169100325e+01 
 1.1359112938098104e+01  1.1507745424218209e+01  1.1658322746704554e+01  1.1810870353483027e+01 
 1.1965414025462254e+01  1.2121979880890626e+01  1.2280594379770355e+01  1.2441284328329266e+01 
 1.2604076883551127e+01  1.2768999557765227e+01  1.2936080223296068e+01  1.3105347117173748e+01 
 1.3276828845906222e+01  1.3450554390313792e+01  1.3626553110426944e+01  1.3804854750448275e+01 
 1.3985489443779320e+01  1.4168487718113182e+01  1.4353880500593778e+01  1.4541699123042598e+01 
 1.4731975327253862e+01  1.4924741270358957e+01  1.5120029530261073e+01  1.5317873111140935e+01 
 1.5518305449034600e+01  1.5721360417484220e+01  1.5927072333262753e+01  1.6135475962173579e+01 
 1.6346606524926038e+01  1.6560499703087686e+01  1.6777191645114744e+01  1.6996718972461167e+01 
 1.7219118785767773e+01  1.7444428671132339e+01  1.7672686706461754e+01  1.7903931467907267e+01 
 1.8138202036383948e+01  1.8375538004175450e+01  1.8615979481625217e+01  1.8859567103915207e+01 
 1.9106342037933356e+01  1.9356345989230860e+01  1.9609621209070518e+01  1.9866210501567306e+01 
 2.0126157230922360e+01  2.0389505328751675e+01  2.0656299301510511e+01  2.0926584238015291e+01 
 2.1200405817063594e+01  2.1477810315153995e+01  2.1758844614306923e+01  2.2043556209987823e+01 
 2.2331993219134013e+01  2.2624204388286536e+01  2.2920239101828475e+01  2.3220147390331011e+01 
 2.3523979939008708e+01  2.3831788096285447e+01  2.4143623882472415e+01  2.4459539998559684e+01 
 2.4779589835122781e+01  2.5103827481345835e+01  2.5432307734162777e+01  2.5765086107518190e+01 
 2.6102218841749124e+01  2.6443762913090119e+01  2.6789776043302140e+01  2.7140316709427740e+01 
 2.7495444153673812e+01  2.7855218393423673e+01  2.8219700231380134e+01  2.8588951265841313e+01 
 2.8963033901110897e+01  2.9342011358044584e+01  2.9725947684734603e+01  3.0114907767333982e+01 
 3.0508957341022434e+01  3.0908163001115781e+01  3.1312592214320745e+01  3.1722313330136920e+01 
 3.2137395592408062e+01  3.2557909151024496e+01  3.2983925073778366e+01  3.3415515358374634e+01 
 3.3852752944598627e+01  3.4295711726643084e+01  3.4744466565596461e+01  3.5199093302094603e+01 
 3.5659668769138058e+01  3.6126270805076956e+01  3.6598978266765933e+01  3.7077871042891097e+01 
 3.7563030067471431e+01  3.8054537333536814e+01  3.8552475906985045e+01  3.9056929940620179e+01 
 3.9567984688374551e+01  4.0085726519716886e+01  4.0610242934248959e+01  4.1141622576493305e+01 
 4.1679955250874045e+01  4.2225331936894513e+01  4.2777844804512682e+01  4.3337587229718224e+01 
 4.3904653810313242e+01  4.4479140381899533e+01  4.5061144034075014e+01  4.5650763126842136e+01 
 4.6248097307230928e+01  4.6853247526139583e+01  4.7466316055395424e+01  4.8087406505039048e+01 
 4.8716623840834707e+01  4.9354074402009736e+01  4.9999865919226181e+01  5.0654107532787499e+01 
 5.1316909811083519e+01  5.1988384769276927e+01  5.2668645888233634e+01  5.3357808133701923e+01 
 5.4055987975741552e+01  5.4763303408407566e+01  5.5479873969691553e+01  5.6205820761723892e+01 
 5.6941266471240247e+01  5.7686335390315975e+01  5.8441153437371717e+01  5.9205848178453984e+01 
 5.9980548848794044e+01  6.0765386374649061e+01  6.1560493395428892e+01  6.2366004286112478e+01 
 6.3182055179957544e+01  6.4008783991507428e+01  6.4846330439898964e+01  6.5694836072475510e+01 
 6.6554444288708254e+01  6.7425300364431806e+01  6.8307551476395687e+01  6.9201346727137647e+01 
 7.0106837170182402e+01  7.1024175835569963e+01  7.1953517755718153e+01  7.2895019991623386e+01 
 7.3848841659404414e+01  7.4815143957193271e+01  7.5794090192378150e+01  7.6785845809202826e+01 
 7.7790578416726987e+01  7.8808457817152700e+01  7.9839656034521241e+01  8.0884347343785663e+01 