  <PP_INFO>

############################################################
#    Opium Parameter File                                  #
############################################################
#-----------------------------------------------------------
#Command line   : opium Fe Fe.log ae ps nl tc2 ke upf qmcpack rpt 
 
#Opium version  : 4.1 
#Compile Host   : ben-XPS-15-7590 
#Compile OS     : Linux 6.5.0-26-generic x86_64 
#Compile Date   : Wed Apr 17 18:47:06 EDT 2024 
#-----------------------------------------------------------
#Execution Host : ben-XPS-15-7590 
#Execution Date : Fri Apr 19 01:23:20 2024
 
#-----------------------------------------------------------
############################################################
[Atom]
Fe
8            
100   2.00  -
200   2.00  -
210   6.00  -
300   2.00  -
310   6.00  -
320   6.00  -
400   0.00  -
410   0.00  -

[Pseudo]
5 1.263 1.296 1.109  1.263 1.296
g

[Gaussinfo]
16 3
2 2 4
2 8.98905165864776 13.94289167031180
2 14.96358849054989 189.50111425416264
2 9.98384494839583 25.80361211977274
2 14.97979158525944 95.80126278893870
1 12.00079439647609 16.0
3 9.99686836745368 192.012710343617440
2 9.40295115102396 -110.30045318214438
2 5.99907066694992 2.59183990503627

[KBdesign]
s

[Relativity]
nrl

[XC]
pbe

[Configs]
12

300  2.00 -
310  6.00 -
320  6.00 -
400  2.00 -
410  0.00 -

300  2.00 -
310  6.00 -
320  7.00 -
400  1.00 -
410  0.00 -

300  2.00 -
310  6.00 -
320  8.00 -
400  0.00 -
410  0.00 -

300  2.00 -
310  6.00 -
320  6.00 -
400  1.00 -
410  0.00 -

300  2.00 -
310  6.00 -
320  7.00 -
400  0.00 -
410  0.00 -

300  2.00 -
310  6.00 -
320  6.00 -
400  0.00 -
410  0.00 -

300  2.00 -
310  6.00 -
320  5.00 -
400  0.00 -
410  0.00 -

300  2.00 -
310  6.00 -
320  4.00 -
400  0.00 -
410  0.00 -

300  2.00 -
310  6.00 -
320  3.00 -
400  0.00 -
410  0.00 -

300  2.00 -
310  6.00 -
320  2.00 -
400  0.00 -
410  0.00 -

300  2.00 -
310  6.00 -
320  1.00 -
400  0.00 -
410  0.00 -

300  2.00 -
310  6.00 -
320  0.00 -
400  0.00 -
410  0.00 -

############################################################
  </PP_INFO>



<PP_HEADER>
   0         Version Number
   Fe        Element
   NC        Norm - Conserving pseudopotential
    F      Nonlinear Core Correction
SLA  PW   PBE  PBE     PBE  Exchange-Correlation functional
 16          Z valence
 0          Total energy
 0.000000   0.000000     Suggested cutoff for wfc and rho
 2           Max angular momentum component
 1160           Number of points in mesh
 3  2     Number of Wavefuncitons, Number of Projectors
 Wavefunctions         nl  l   occ
                      3S  0  2.000000
                      3P  1  6.000000
                      3D  2  6.000000
</PP_HEADER>
<PP_MESH>
  <PP_R>
 3.3755319058958179e-05  3.4197002931532680e-05  3.4644466178994789e-05  3.5097784423698326e-05 
 3.5557034277505590e-05  3.6022293354734962e-05  3.6493640285277805e-05  3.6971154727887243e-05 
 3.7454917383640628e-05  3.7945010009578178e-05  3.8441515432520124e-05  3.8944517563064711e-05 
 3.9454101409769171e-05  3.9970353093516446e-05  4.0493359862069885e-05  4.1023210104818082e-05 
 4.1559993367713207e-05  4.2103800368404283e-05  4.2654723011568728e-05  4.3212854404444499e-05 
 4.3778288872565395e-05  4.4351121975702314e-05  4.4931450524013096e-05  4.5519372594403670e-05 
 4.6114987547103174e-05  4.6718396042456265e-05  4.7329700057934833e-05  4.7949002905372453e-05 
 4.8576409248424358e-05  4.9212025120255786e-05  4.9855957941461922e-05  5.0508316538222173e-05 
 5.1169211160692113e-05  5.1838753501635822e-05  5.2517056715302565e-05  5.3204235436549868e-05 
 5.3900405800217176e-05  5.4605685460752899e-05  5.5320193612098310e-05  5.6044051007831572e-05 
 5.6777379981575470e-05  5.7520304467671871e-05  5.8272950022127183e-05  5.9035443843831500e-05 
 5.9807914796055495e-05  6.0590493428228636e-05  6.1383311998002390e-05  6.2186504493602036e-05 
 6.3000206656470975e-05  6.3824556004211467e-05  6.4659691853825334e-05  6.5505755345258757e-05 
 6.6362889465255585e-05  6.7231239071522108e-05  6.8110950917208592e-05  6.9002173675710736e-05 
 6.9905057965795916e-05  7.0819756377058115e-05  7.1746423495705993e-05  7.2685215930687989e-05 
 7.3636292340160107e-05  7.4599813458299237e-05  7.5575942122467585e-05  7.6564843300732678e-05 
 7.7566684119747325e-05  7.8581633892994422e-05  7.9609864149401345e-05  8.0651548662328675e-05 
 8.1706863478938504e-05  8.2775986949946444e-05  8.3859099759763761e-05  8.4956384957033282e-05 
 8.6068027985564932e-05  8.7194216715676375e-05  8.8335141475943455e-05  8.9490995085366143e-05 
 9.0661972885955572e-05  9.1848272775746901e-05  9.3050095242245106e-05  9.4267643396307474e-05 
 9.5501123006469952e-05  9.6750742533722423e-05  9.8016713166739210e-05  9.9299248857570441e-05 
 1.0059856635780042e-04  1.0191488525517919e-04  1.0324842801073337e-04  1.0459941999636270e-04 
 1.0596808953292807e-04  1.0735466792883880e-04  1.0875938951914401e-04  1.1018249170513581e-04 
 1.1162421499447078e-04  1.1308480304181625e-04  1.1456450269002864e-04  1.1606356401187014e-04 
 1.1758224035227218e-04  1.1912078837115084e-04  1.2067946808678324e-04  1.2225854291975110e-04 
 1.2385827973745956e-04  1.2547894889923837e-04  1.2712082430203314e-04  1.2878418342669485e-04 
 1.3046930738487447e-04  1.3217648096653184e-04  1.3390599268806524e-04  1.3565813484107213e-04 
 1.3743320354174662e-04  1.3923149878092403e-04  1.4105332447477984e-04  1.4289898851619243e-04 
 1.4476880282677783e-04  1.4666308340960456e-04  1.4858215040259985e-04  1.5052632813265308e-04 
 1.5249594517042792e-04  1.5449133438589171e-04  1.5651283300457101e-04  1.5856078266454374e-04 
 1.6063552947417683e-04  1.6273742407061913e-04  1.6486682167906019e-04  1.6702408217276411e-04 
 1.6920957013388859e-04  1.7142365491510083e-04  1.7366671070199858e-04  1.7593911657634860e-04 
 1.7824125658015208e-04  1.8057351978054907e-04  1.8293630033557157e-04  1.8532999756075674e-04 
 1.8775501599663295e-04  1.9021176547708772e-04  1.9270066119863051e-04  1.9522212379056211e-04 
 1.9777657938606184e-04  2.0036445969420520e-04  2.0298620207292369e-04  2.0564224960291930e-04 
 2.0833305116254623e-04  2.1105906150367267e-04  2.1382074132853400e-04  2.1661855736759391e-04 
 2.1945298245842207e-04  2.2232449562560505e-04  2.2523358216170253e-04  2.2818073370926305e-04 
 2.3116644834391287e-04  2.3419123065853112e-04  2.3725559184852843e-04  2.4036004979823943e-04 
 2.4350512916844651e-04  2.4669136148504882e-04  2.4991928522889137e-04  2.5318944592676970e-04 
 2.5650239624362502e-04  2.5985869607594603e-04  2.6325891264639275e-04  2.6670362059965833e-04 
 2.7019340209958595e-04  2.7372884692755461e-04  2.7731055258215512e-04  2.8093912438016796e-04 
 2.8461517555886361e-04  2.8833932737964014e-04  2.9211220923301923e-04  2.9593445874501412e-04 
 2.9980672188488955e-04  3.0372965307433244e-04  3.0770391529805094e-04  3.1173018021581983e-04 
 3.1580912827599325e-04  3.1994144883050148e-04  3.2412784025135380e-04  3.2836901004866412e-04 
 3.3266567499022268e-04  3.3701856122263110e-04  3.4142840439402322e-04  3.4589594977839025e-04 
 3.5042195240153563e-04  3.5500717716867509e-04  3.5965239899370777e-04  3.6435840293017751e-04 
 3.6912598430395078e-04  3.7395594884762691e-04  3.7884911283670965e-04  3.8380630322755932e-04 
 3.8882835779715060e-04  3.9391612528465869e-04  3.9907046553489840e-04  4.0429224964363974e-04 
 4.0958236010482565e-04  4.1494169095971479e-04  4.2037114794797755e-04  4.2587164866076754e-04 
 4.3144412269579727e-04  4.3708951181444092e-04  4.4280877010089656e-04  4.4860286412342699e-04 
 4.5447277309771289e-04  4.6041948905234105e-04  4.6644401699646201e-04  4.7254737508963722e-04 
 4.7873059481391104e-04  4.8499472114813360e-04  4.9134081274456452e-04  4.9776994210778795e-04 
 5.0428319577596815e-04  5.1088167450447737e-04  5.1756649345192560e-04  5.2433878236862546e-04 
 5.3119968578752279e-04  5.3815036321762475e-04  5.4519198933996086e-04  5.5232575420610468e-04 
 5.5955286343929809e-04  5.6687453843820264e-04  5.7429201658332001e-04  5.8180655144611005e-04 
 5.8941941300085030e-04  5.9713188783926292e-04  6.0494527938795208e-04  6.1286090812868608e-04 
 6.2088011182156208e-04  6.2900424573109060e-04  6.3723468285523869e-04  6.4557281415746949e-04 
 6.5402004880181855e-04  6.6257781439104627e-04  6.7124755720790528e-04  6.8003074245956657e-04 
 6.8892885452524310e-04  6.9794339720705102e-04  7.0707589398415996e-04  7.1632788827026095e-04 
 7.2570094367440979e-04  7.3519664426527766e-04  7.4481659483886559e-04  7.5456242118971686e-04 
 7.6443577038568065e-04  7.7443831104627100e-04  7.8457173362466597e-04  7.9483775069340019e-04 
 8.0523809723379242e-04  8.1577453092916187e-04  8.2644883246188049e-04  8.3726280581431336e-04 
 8.4821827857369512e-04  8.5931710224099753e-04  8.7056115254383678e-04  8.8195232975347537e-04 
 8.9349255900597428e-04  9.0518379062754374e-04  9.1702800046415483e-04  9.2902719021545918e-04 
 9.4118338777308453e-04  9.5349864756335114e-04  9.6597505089447483e-04  9.7861470630831440e-04 
 9.9141974993671700e-04  1.0043923458625341e-03  1.0175346864853528e-03  1.0308489928920190e-03 
 1.0443375152320038e-03  1.0580025330976872e-03  1.0718463559096123e-03  1.0858713233067843e-03 
 1.1000798055420746e-03  1.1144742038827970e-03  1.1290569510165323e-03  1.1438305114622540e-03 
 1.1587973819868406e-03  1.1739600920270324e-03  1.1893212041169153e-03  1.2048833143209936e-03 
 1.2206490526729308e-03  1.2366210836200335e-03  1.2528021064735450e-03  1.2691948558648406e-03 
 1.2858021022075839e-03  1.3026266521659344e-03  1.3196713491288778e-03  1.3369390736907695e-03 
 1.3544327441381591e-03  1.3721553169429891e-03  1.3901097872622455e-03  1.4082991894441446e-03 
 1.4267265975409478e-03  1.4453951258284828e-03  1.4643079293324634e-03  1.4834682043616955e-03 
 1.5028791890482622e-03  1.5225441638947765e-03  1.5424664523287907e-03  1.5626494212644690e-03 
 1.5830964816715971e-03  1.6038110891520502e-03  1.6247967445237957e-03  1.6460569944125396e-03 
 1.6675954318511137e-03  1.6894156968867090e-03  1.7115214771960510e-03  1.7339165087086258e-03 
 1.7566045762380624e-03  1.7795895141217710e-03  1.8028752068689614e-03  1.8264655898171300e-03 
 1.8503646497971425e-03  1.8745764258070177e-03  1.8991050096945291e-03  1.9239545468487311e-03 
 1.9491292369005482e-03  1.9746333344325176e-03  2.0004711496978246e-03  2.0266470493487455e-03 
 2.0531654571746220e-03  2.0800308548494938e-03  2.1072477826895096e-03  2.1348208404202555e-03 
 2.1627546879541106e-03  2.1910540461777955e-03  2.2197236977502051e-03  2.2487684879106910e-03 
 2.2781933252979210e-03  2.3080031827794464e-03  2.3382030982921327e-03  2.3687981756935800e-03 
 2.3997935856246901e-03  2.4311945663835098e-03  2.4630064248105264e-03  2.4952345371855303e-03 
 2.5278843501362171e-03  2.5609613815586862e-03  2.5944712215499755e-03  2.6284195333527989e-03 
 2.6628120543126512e-03  2.6976545968474355e-03  2.7329530494297630e-03  2.7687133775821373e-03 
 2.8049416248851285e-03  2.8416439139987574e-03  2.8788264476972397e-03  2.9164955099172689e-03 
 2.9546574668200148e-03  2.9933187678670243e-03  3.0324859469101936e-03  3.0721656232959990e-03 
 3.1123645029841923e-03  3.1530893796811181e-03  3.1943471359878687e-03  3.2361447445634554e-03 
 3.2784892693032116e-03  3.3213878665326016e-03  3.3648477862166593e-03  3.4088763731852548e-03 
 3.4534810683743708e-03  3.4986694100836613e-03  3.5444490352504274e-03  3.5908276807402823e-03 
 3.6378131846546997e-03  3.6854134876556708e-03  3.7336366343076969e-03  3.7824907744373371e-03 
 3.8319841645105541e-03  3.8821251690280634e-03  3.9329222619389724e-03  3.9843840280728840e-03 
 4.0365191645907591e-03  4.0893364824547565e-03  4.1428449079173053e-03  4.1970534840296636e-03 
 4.2519713721702159e-03  4.3076078535927726e-03  4.3639723309951061e-03  4.4210743301080534e-03 
 4.4789235013053741e-03  4.5375296212346863e-03  4.5969025944697468e-03  4.6570524551843451e-03 
 4.7179893688481054e-03  4.7797236339444720e-03  4.8422656837111841e-03  4.9056260879035011e-03 
 4.9698155545805367e-03  5.0348449319149394e-03  5.1007252100262529e-03  5.1674675228382807e-03 
 5.2350831499607406e-03  5.3035835185955482e-03  5.3729802054680404e-03  5.4432849387834742e-03 
 5.5145096002091019e-03  5.5866662268822332e-03  5.6597670134445116e-03  5.7338243141028550e-03 
 5.8088506447173394e-03  5.8848586849164072e-03  5.9618612802397591e-03  6.0398714443092773e-03 
 6.1189023610283685e-03  6.1989673868100463e-03  6.2800800528342382e-03  6.3622540673345567e-03 
 6.4455033179150346e-03  6.5298418738971627e-03  6.6152839886976338e-03  6.7018441022372120e-03 
 6.7895368433811042e-03  6.8783770324112878e-03  6.9683796835311469e-03  7.0595600074029406e-03 
 7.1519334137184207e-03  7.2455155138031130e-03  7.3403221232546650e-03  7.4363692646157243e-03 
 7.5336731700817823e-03  7.6322502842444545e-03  7.7321172668706646e-03  7.8332909957181569e-03 
 7.9357885693879145e-03  8.0396273102138448e-03  8.1448247671902906e-03  8.2513987189378642e-03 
 8.3593671767080643e-03  8.4687483874272308e-03  8.5795608367803134e-03  8.6918232523350031e-03 
 8.8055546067067111e-03  8.9207741207650258e-03  9.0375012668820510e-03  9.1557557722233111e-03 
 9.2755576220816573e-03  9.3969270632548625e-03  9.5198846074673535e-03  9.6444510348367516e-03 
 9.7706473973857722e-03  9.8984950226000280e-03  1.0028015517032481e-02  1.0159230769954956e-02 
 1.0292162957057508e-02  1.0426834544196146e-02  1.0563268291189627e-02  1.0701487255665922e-02 
 1.0841514796958995e-02  1.0983374580056621e-02  1.1127090579599761e-02  1.1272687083934406e-02 
 1.1420188699216320e-02  1.1569620353569555e-02  1.1721007301299361e-02  1.1874375127160216e-02 
 1.2029749750679723e-02  1.2187157430539063e-02  1.2346624769010790e-02  1.2508178716454628e-02 
 1.2671846575872224e-02  1.2837656007521363e-02  1.3005635033590635e-02  1.3175812042935255e-02 
 1.3348215795874837e-02  1.3522875429053968e-02  1.3699820460366359e-02  1.3879080793943463e-02 
 1.4060686725208289e-02  1.4244668945995466e-02  1.4431058549738208e-02  1.4619887036723171e-02 
 1.4811186319414084e-02  1.5004988727845038e-02  1.5201327015084320e-02  1.5400234362769780e-02 
 1.5601744386716611e-02  1.5805891142598442e-02  1.6012709131702923e-02  1.6222233306762458e-02 
 1.6434499077861323e-02  1.6649542318420044e-02  1.6867399371258099e-02  1.7088107054735936e-02 
 1.7311702668977372e-02  1.7538224002173412e-02  1.7767709336968470e-02  1.8000197456930343e-02 
 1.8235727653104647e-02  1.8474339730655123e-02  1.8716074015590799e-02  1.8960971361581171e-02 
 1.9209073156860598e-02  1.9460421331222992e-02  1.9715058363108058e-02  1.9973027286780222e-02 
 2.0234371699601589e-02  2.0499135769399948e-02  2.0767364241933265e-02  2.1039102448451804e-02 
 2.1314396313359227e-02  2.1593292361973937e-02  2.1875837728391946e-02  2.2162080163452676e-02 
 2.2452068042808911e-02  2.2745850375102475e-02  2.3043476810246752e-02  2.3344997647817667e-02 
 2.3650463845554418e-02  2.3959927027971454e-02  2.4273439495083166e-02  2.4591054231242679e-02 
 2.4912824914096385e-02  2.5238805923655482e-02  2.5569052351486481e-02  2.5903620010021691e-02 
 2.6242565441991720e-02  2.6585945929981293e-02  2.6933819506110155e-02  2.7286244961840643e-02 
 2.7643281857913586e-02  2.8004990534414225e-02  2.8371432120969743e-02  2.8742668547080460e-02 
 2.9118762552585963e-02  2.9499777698268323e-02  2.9885778376594022e-02  3.0276829822596402e-02 
 3.0672998124900590e-02  3.1074350236892583e-02  3.1480953988034605e-02  3.1892878095328286e-02 
 3.2310192174928212e-02  3.2732966753907092e-02  3.3161273282175004e-02  3.3595184144554646e-02 
 3.4034772673014503e-02  3.4480113159062152e-02  3.4931280866299687e-02  3.5388352043143487e-02 
 3.5851403935710249e-02  3.6320514800871950e-02  3.6795763919481347e-02  3.7277231609770603e-02 
 3.7764999240925336e-02  3.8259149246836134e-02  3.8759765140030114e-02  3.9266931525784761e-02 
 3.9780734116426401e-02  4.0301259745815672e-02  4.0828596384022878e-02  4.1362833152194994e-02 
 4.1904060337617385e-02  4.2452369408972540e-02  4.3007853031798562e-02  4.3570605084149810e-02 
 4.4140720672462538e-02  4.4718296147628123e-02  4.5303429121276502e-02  4.5896218482272912e-02 
 4.6496764413430272e-02  4.7105168408440298e-02  4.7721533289026209e-02  4.8345963222319828e-02 
 4.8978563738466090e-02  4.9619441748457879e-02  5.0268705562204259e-02  5.0926464906834994e-02 
 5.1592830945244909e-02  5.2267916294880486e-02  5.2951835046772595e-02  5.3644702784818109e-02 
 5.4346636605313837e-02  5.5057755136746107e-02  5.5778178559839277e-02  5.6508028627866566e-02 
 5.7247428687226501e-02  5.7996503698288980e-02  5.8755380256513771e-02  5.9524186613845398e-02 
 6.0303052700388084e-02  6.1092110146364238e-02  6.1891492304360259e-02  6.2701334271863460e-02 
 6.3521772914093902e-02  6.4352946887134721e-02  6.5194996661365717e-02  6.6048064545202886e-02 
 6.6912294709148973e-02  6.7787833210158646e-02  6.8674828016322423e-02  6.9573429031873704e-02 
 7.0483788122522859e-02  7.1406059141123024e-02  7.2340397953671295e-02  7.3286962465650890e-02 
 7.4245912648717244e-02  7.5217410567733664e-02  7.6201620408160767e-02  7.7198708503804073e-02 
 7.8208843364924910e-02  7.9232195706719036e-02  8.0268938478167948e-02  8.1319246891267447e-02 
 8.2383298450639256e-02  8.3461272983529428e-02  8.4553352670199727e-02  8.5659722074716449e-02 
 8.6780568176142228e-02  8.7916080400135918e-02  8.9066450650965995e-02  9.0231873343942948e-02 
 9.1412545438275539e-02  9.2608666470357884e-02  9.3820438587491312e-02  9.5048066582047744e-02 
 9.6291757926080149e-02  9.7551722806385743e-02  9.8828174160028162e-02  1.0012132771032424e-01 
 1.0143140200330181e-01  1.0275861844463449e-01  1.0410320133705975e-01  1.0546537791828668e-01 
 1.0684537839939980e-01  1.0824343600376453e-01  1.0965978700644377e-01  1.1109467077412802e-01 
 1.1254832980558914e-01  1.1402100977266330e-01  1.1551295956177010e-01  1.1702443131597486e-01 
 1.1855568047760147e-01  1.2010696583140278e-01  1.2167854954829581e-01  1.2327069722966920e-01 
 1.2488367795227062e-01  1.2651776431368120e-01  1.2817323247838527e-01  1.2985036222444293e-01 
 1.3154943699077293e-01  1.3327074392505475e-01  1.3501457393225741e-01  1.3678122172380214e-01 
 1.3857098586737071e-01  1.4038416883736324e-01  1.4222107706601717e-01  1.4408202099519521e-01 
 1.4596731512885056e-01  1.4787727808617901e-01  1.4981223265546625e-01  1.5177250584863988e-01 
 1.5375842895653519e-01  1.5577033760488407e-01  1.5780857181103664e-01  1.5987347604142496e-01 
 1.6196539926977863e-01  1.6408469503610221e-01  1.6623172150642432e-01  1.6840684153332858e-01 
 1.7061042271727686e-01  1.7284283746873338e-01  1.7510446307110483e-01  1.7739568174450079e-01 
 1.7971688071033048e-01  1.8206845225674378e-01  1.8445079380492904e-01  1.8686430797627801e-01 
 1.8930940266043011e-01  1.9178649108420653e-01  1.9429599188144658e-01  1.9683832916375785e-01 
 1.9941393259219206e-01  2.0202323744985878e-01  2.0466668471548938e-01  2.0734472113796343e-01 
 2.1005779931181029e-01  2.1280637775369871e-01  2.1559092097992766e-01  2.1841189958492910e-01 
 2.2126979032080182e-01  2.2416507617788228e-01  2.2709824646637136e-01  2.3006979689902904e-01 
 2.3308022967495107e-01  2.3613005356444164e-01  2.3921978399499694e-01  2.4234994313841365e-01 
 2.4552105999903709e-01  2.4873367050316419e-01  2.5198831758961654e-01  2.5528555130149810e-01 
 2.5862592887915398e-01  2.6201001485434505e-01  2.6543838114565577e-01  2.6891160715514917e-01 
 2.7243027986628782e-01  2.7599499394313387e-01  2.7960635183085109e-01  2.8326496385751787e-01 
 2.8697144833727461e-01  2.9072643167482015e-01  2.9453054847127574e-01  2.9838444163143418e-01 
 3.0228876247241221e-01  3.0624417083372457e-01  3.1025133518879855e-01  3.1431093275794758e-01 
 3.1842364962282321e-01  3.2259018084236418e-01  3.2681123057026340e-01  3.3108751217397120e-01 
 3.3541974835525679e-01  3.3980867127234587e-01  3.4425502266365809e-01  3.4875955397316011e-01 
 3.5332302647736508e-01  3.5794621141398769e-01  3.6262989011228591e-01  3.6737485412510734e-01 
 3.7218190536266349e-01  3.7705185622805498e-01  3.8198552975456884e-01  3.8698375974477384e-01 
 3.9204739091143437e-01  3.9717727902026972e-01  4.0237429103457983e-01  4.0763930526176451e-01 
 4.1297321150175936e-01  4.1837691119741433e-01  4.2385131758683908e-01  4.2939735585774313e-01 
 4.3501596330379522e-01  4.4070808948302498e-01  4.4647469637830522e-01  4.5231675855992637e-01 
 4.5823526335030179e-01  4.6423121099082765e-01  4.7030561481092614e-01  4.7645950139930060e-01 
 4.8269391077743118e-01  4.8900989657534139e-01  4.9540852620966369e-01  5.0189088106403557e-01 
 5.0845805667185617e-01  5.1511116290143366e-01  5.2185132414355606e-01  5.2867967950151518e-01 
 5.3559738298361881e-01  5.4260560369822031e-01  5.4970552605130163e-01  5.5689834994663701e-01 
 5.6418529098858528e-01  5.7156758068752622e-01  5.7904646666798942e-01  5.8662321287950614e-01 
 5.9429909981021956e-01  6.0207542470329023e-01  6.0995350177613339e-01  6.1793466244252515e-01 
 6.2602025553761398e-01  6.3421164754587744e-01  6.4251022283206127e-01  6.5091738387514009e-01 
 6.5943455150534025e-01  6.6806316514426278e-01  6.7680468304814967e-01  6.8566058255433238e-01 
 6.9463236033090636e-01  7.0372153262966741e-01  7.1292963554236810e-01  7.2225822526031702e-01 
 7.3170887833737930e-01  7.4128319195641867e-01  7.5098278419922437e-01  7.6080929431997124e-01 
 7.7076438302225792e-01  7.8084973273976932e-01  7.9106704792061155e-01  8.0141805531536847e-01 
 8.1190450426892613e-01  8.2252816701611664e-01  8.3329083898122935e-01  8.4419433908144270e-01 
 8.5524051003422508e-01  8.6643121866875838e-01  8.7776835624143834e-01  8.8925383875549524e-01 
 9.0088960728481193e-01  9.1267762830196419e-01  9.2461989401056044e-01  9.3671842268192940e-01 
 9.4897525899621193e-01  9.6139247438791786e-01  9.7397216739600245e-01  9.8671646401852486e-01 
 9.9962751807194705e-01  1.0127075115551336e+00  1.0259586550181148e+00  1.0393831879356747e+00 
 1.0529833790858287e+00  1.0667615269332502e+00  1.0807199600177193e+00  1.0948610373476493e+00 
 1.1091871487987681e+00  1.1237007155180048e+00  1.1384041903326805e+00  1.1533000581650343e+00 
 1.1683908364521840e+00  1.1836790755715771e+00  1.1991673592720127e+00  1.2148583051102995e+00 
 1.2307545648936300e+00  1.2468588251277428e+00  1.2631738074709467e+00  1.2797022691940891e+00 
 1.2964470036465403e+00  1.3134108407282772e+00  1.3305966473681419e+00  1.3480073280083607e+00 
 1.3656458250954009e+00  1.3835151195772513e+00  1.4016182314072123e+00  1.4199582200542658e+00 
 1.4385381850201464e+00  1.4573612663631554e+00  1.4764306452288407e+00  1.4957495443876174e+00 
 1.5153212287794242e+00  1.5351490060655060e+00  1.5552362271874156e+00  1.5755862869333330e+00 
 1.5962026245117897e+00  1.6170887241329055e+00  1.6382481155972275e+00  1.6596843748922743e+00 
 1.6814011247968874e+00  1.7034020354934882e+00  1.7256908251883494e+00  1.7482712607399784e+00 
 1.7711471582957303e+00  1.7943223839367328e+00  1.8178008543312811e+00  1.8415865373967537e+00 
 1.8656834529702002e+00  1.8900956734877057e+00  1.9148273246726413e+00  1.9398825862329210e+00 
 1.9652656925673819e+00  1.9909809334814097e+00  2.0170326549119229e+00  2.0434252596618485e+00 
 2.0701632081442072e+00  2.0972510191359310e+00  2.1246932705415493e+00  2.1524946001668641e+00 
 2.1806597065027526e+00  2.2091933495192215e+00  2.2381003514698565e+00  2.2673855977067818e+00 
 2.2970540375063164e+00  2.3271106849054002e+00  2.3575606195489822e+00  2.3884089875484897e+00 
 2.4196610023515377e+00  2.4513219456230102e+00  2.4833971681376763e+00  2.5158920906844831e+00 
 2.5488122049826822e+00  2.5821630746099435e+00  2.6159503359426113e+00  2.6501796991082682e+00 
 2.6848569489507588e+00  2.7199879460078407e+00  2.7555786275016327e+00  2.7916350083420167e+00 
 2.8281631821431761e+00  2.8651693222534149e+00  2.9026596827984950e+00  2.9406405997385789e+00 
 2.9791184919390270e+00  3.0180998622552035e+00  3.0575912986314715e+00  3.0975994752145701e+00 
 3.1381311534815670e+00  3.1791931833825582e+00  3.2207925044983279e+00  3.2629361472131557e+00 
 3.3056312339029663e+00  3.3488849801390286e+00  3.3927046959074048e+00  3.4370977868443542e+00 
 3.4820717554879059e+00  3.5276342025458027e+00  3.5737928281800464e+00  3.6205554333082195e+00 
 3.6679299209218934e+00  3.7159242974222315e+00  3.7645466739730931e+00  3.8138052678718415e+00 
 3.8637084039380856e+00  3.9142645159205949e+00  3.9654821479226232e+00  4.0173699558458811e+00 
 4.0699367088534064e+00  4.1231912908515715e+00  4.1771427019914835e+00  4.2318000601900367e+00 
 4.2871726026708554e+00  4.3432696875254111e+00  4.4001007952945601e+00  4.4576755305707803e+00 
 4.5160036236213736e+00  4.5750949320328758e+00  4.6349594423770606e+00  4.6956072718986590e+00 
 4.7570486702252079e+00  4.8192940210992612e+00  4.8823538441332648e+00  4.9462387965874033e+00 
 5.0109596751706906e+00  5.0765274178656519e+00  5.1429531057768578e+00  5.2102479650036653e+00 
 5.2784233685374540e+00  5.3474908381836830e+00  5.4174620465091099e+00  5.4883488188144813e+00 
 5.5601631351330338e+00  5.6329171322551499e+00  5.7066231057795145e+00  5.7812935121910609e+00 
 5.8569409709662059e+00  5.9335782667055295e+00  6.0112183512944171e+00  6.0898743460919551e+00 
 6.1695595441484716e+00  6.2502874124520993e+00  6.3320715942047192e+00  6.4149259111277015e+00 
 6.4988643657978100e+00  6.5839011440136641e+00  6.6700506171931782e+00  6.7573273448023636e+00 
 6.8457460768159129e+00  6.9353217562099827e+00  7.0260695214875888e+00  7.1180047092370504e+00 
 7.2111428567239262e+00  7.3054997045167926e+00  7.4010911991475199e+00  7.4979334958062145e+00 
 7.5960429610715092e+00  7.6954361756765417e+00  7.7961299373111448e+00  7.8981412634606976e+00 
 8.0014873942821154e+00  8.1061857955174812e+00  8.2122541614457951e+00  8.3197104178733543e+00 
 8.4285727251632476e+00  8.5388594813045149e+00  8.6505893250214321e+00  8.7637811389235178e+00 
 8.8784540526967266e+00  8.9946274463364233e+00  9.1123209534226497e+00  9.2315544644381937e+00 
 9.3523481301302205e+00  9.4747223649157331e+00  9.5986978503316713e+00  9.7242955385301464e+00 
 9.8515366558193964e+00  9.9804427062510896e+00  1.0111035475254559e+01  1.0243337033318589e+01 
 1.0377369739721381e+01  1.0513156246309334e+01  1.0650719501325238e+01  1.0790082753286612e+01 
 1.0931269554914731e+01  1.1074303767115108e+01  1.1219209563010043e+01  1.1366011432023932e+01 
 1.1514734184022057e+01  1.1665402953503445e+01  1.1818043203848763e+01  1.1972680731623617e+01 
 1.2129341670938253e+01  1.2288052497864284e+01  1.2448840034909210e+01  1.2611731455549478e+01 
 1.2776754288822874e+01  1.2943936423980993e+01  1.3113306115202587e+01  1.3284891986368583e+01 
 1.3458723035899608e+01  1.3634828641656760e+01  1.3813238565906564e+01  1.3993982960350850e+01 
 1.4177092371222470e+01  1.4362597744447678e+01  1.4550530430876092e+01  1.4740922191578973e+01 
 1.4933805203217048e+01  1.5129212063478370e+01  1.5327175796587408e+01  1.5527729858886230e+01 
 1.5730908144488703e+01  1.5936744991008679e+01  1.6145275185363126e+01  1.6356533969651220e+01 
 1.6570557047110320e+01  1.6787380588149908e+01  1.7007041236464481e+01  1.7229576115226422e+01 
 1.7455022833359894e+01  1.7683419491896846e+01  1.7914804690416180e+01  1.8149217533567160e+01 
 1.8386697637678239e+01  1.8627285137452173e+01  1.8871020692749077e+01  1.9117945495457910e+01 
 1.9368101276458038e+01  1.9621530312671840e+01  1.9878275434209623e+01  2.0138380031608008e+01 
 2.0401888063163025e+01  2.0668844062359184e+01  2.0939293145395730e+01  2.1213281018811394e+01 
 2.1490853987208897e+01  2.1772058961080550e+01  2.2056943464736229e+01  2.2345555644335111e+01 
 2.2637944276022470e+01  2.2934158774173014e+01  2.3234249199741864e+01  2.3538266268725238e+01 
 2.3846261360731376e+01  2.4158286527663886e+01  2.4474394502518631e+01  2.4794638708295729e+01 
 2.5119073267028163e+01  2.5447753008928551e+01  2.5780733481655563e+01  2.6118070959701615e+01 
 2.6459822453903392e+01  2.6806045721076813e+01  2.7156799273778081e+01  2.7512142390192427e+01 
 2.7872135124152276e+01  2.8236838315286484e+01  2.8606313599302382e+01  2.8980623418402406e+01 
 2.9359831031836777e+01  2.9744000526594768e+01  3.0133196828235349e+01  3.0527485711859828e+01 
 3.0926933813227983e+01  3.1331608640019663e+01  3.1741578583243765e+01  3.2156912928796473e+01 
 3.2577681869170696e+01  3.3003956515318855e+01  3.3435808908670708e+01  3.3873312033308586e+01 
 3.4316539828301856e+01  3.4765567200202788e+01  3.5220470035705972e+01  3.5681325214473311e+01 
 3.6148210622126904e+01  3.6621205163411943e+01  3.7100388775531542e+01  3.7585842441656716e+01 
 3.8077648204612480e+01  3.8575889180743303e+01  3.9080649573960024e+01  3.9592014689970469e+01 
 4.0110070950696347e+01  4.0634905908878743e+01  4.1166608262874739e+01  4.1705267871647678e+01 
 4.2250975769953484e+01  4.2803824183725837e+01  4.3363906545662481e+01  4.3931317511015628e+01 
 4.4506152973588918e+01  4.5088510081943703e+01  4.5678487255817352e+01  4.6276184202756525e+01 
 4.6881701934967694e+01  4.7495142786388847e+01  4.8116610429983936e+01  4.8746209895263888e+01 
 4.9384047586036822e+01  5.0030231298390611e+01  5.0684870238910619e+01  5.1348075043135900e+01 
 5.2019957794256854e+01  5.2700632042057570e+01  5.3390212822106001e+01  5.4088816675195226e+01 
 5.4796561667039185e+01  5.5513567408225995e+01  5.6239955074432451e+01  5.6975847426903023e+01 
 5.7721368833196763e+01  5.8476645288205866e+01  5.9241804435448643e+01  6.0016975588642239e+01 
 6.0802289753556515e+01  6.1597879650154482e+01  6.2403879735022237e+01  6.3220426224092471e+01 
 6.4047657115665316e+01  6.4885712213730329e+01  6.5734733151593730e+01  6.6594863415814785e+01 
 6.7466248370455318e+01  6.8349035281646664e+01  6.9243373342477923e+01  7.0149413698209983e+01 
 7.1067309471819428e+01  7.1997215789876691e+01  7.2939289808762766e+01  7.3893690741229236e+01 