  <PP_INFO>

############################################################
#    Opium Parameter File                                  #
############################################################
#-----------------------------------------------------------
#Command line   : opium Ba Ba.log ae ps nl tc2 ke upf qmcpack rpt 
 
#Opium version  : 4.1 
#Compile Host   : py-garuda.cos.ncsu.edu 
#Compile OS     : Linux 5.15.0-113-generic x86_64 
#Compile Date   : Sat Jul 13 02:11:52 EDT 2024 
#-----------------------------------------------------------
#Execution Host : py-garuda.cos.ncsu.edu 
#Execution Date : Thu May  1 23:21:11 2025
 
#-----------------------------------------------------------
############################################################
[Atom]
Ba
14            
100   2.00  -
200   2.00  -
210   6.00  -
300   2.00  -
310   6.00  -
320   10.00  -
400   2.00  -
410   6.00  -
420   10.00  -
500   2.00  -
510   6.00  -
520   1.00  -
600   1.00  -
610   0.00  -

[Pseudo]
5 -1 -1 -1 -1 -1
g

[Gaussinfo]
10 5
2 2 2 2 4
2 4.046183  84.785943
2 2.258112  17.375717
2 6.361827 157.532338
2 2.002936  25.777693
2 1.863849  12.467708
2 0.848671   3.415276
2 6.200000 -46.100000
2 1.620000  -5.320000
1 9.999991  10.000000
3 9.998491  99.999090
2 9.997459 120.999962
2 2.263468  -7.579943

[KBdesign]
s

[Relativity]
nrl

[XC]
pbe

[Configs]
7

500  2.00 -
510  6.00 -
520  0.00 -
600  2.00 -
610  0.00 -

500  2.00 -
510  6.00 -
520  1.00 -
600  1.00 -
610  0.00 -

500  2.00 -
510  6.00 -
520  1.00 -
600  0.00 -
610  0.00 -

500  2.00 -
510  6.00 -
520  0.00 -
600  0.00 -
610  0.00 -

500  2.00 -
510  5.00 -
520  0.00 -
600  0.00 -
610  0.00 -

500  2.00 -
510  4.00 -
520  0.00 -
600  0.00 -
610  0.00 -

500  2.00 -
510  3.00 -
520  0.00 -
600  0.00 -
610  0.00 -
############################################################
  </PP_INFO>



<PP_HEADER>
   0         Version Number
   Ba        Element
   NC        Norm - Conserving pseudopotential
    F      Nonlinear Core Correction
SLA  PW   PBE  PBE     PBE  Exchange-Correlation functional
 10          Z valence
 0          Total energy
 0.000000   0.000000     Suggested cutoff for wfc and rho
 2           Max angular momentum component
 1179           Number of points in mesh
 3  2     Number of Wavefuncitons, Number of Projectors
 Wavefunctions         nl  l   occ
                      5S  0  2.000000
                      5P  1  6.000000
                      5D  2  1.000000
</PP_HEADER>
<PP_MESH>
  <PP_R>
 2.6137897928735510e-05  2.6479908856197243e-05  2.6826394951280417e-05  2.7177414770959773e-05 
 2.7533027638420299e-05  2.7893293653083006e-05  2.8258273700761805e-05  2.8628029463953454e-05 
 2.9002623432261986e-05  2.9382118912959626e-05  2.9766580041685841e-05  3.0156071793286438e-05 
 3.0550659992794470e-05  3.0950411326554807e-05  3.1355393353494342e-05  3.1765674516539457e-05 
 3.2181324154183241e-05  3.2602412512203748e-05  3.3029010755535709e-05  3.3461190980297600e-05 
 3.3899026225976037e-05  3.4342590487769620e-05  3.4791958729094329e-05  3.5247206894252507e-05 
 3.5708411921267554e-05  3.6175651754886760e-05  3.6649005359754091e-05  3.7128552733755407e-05 
 3.7614374921538276e-05  3.8106554028208731e-05  3.8605173233207239e-05  3.9110316804366205e-05 
 3.9622070112151492e-05  4.0140519644090045e-05  4.0665753019386772e-05  4.1197859003732205e-05 
 4.1736927524304156e-05  4.2283049684965636e-05  4.2836317781661629e-05  4.3396825318017300e-05 
 4.3964667021140363e-05  4.4539938857630198e-05  4.5122738049796293e-05  4.5713163092089287e-05 
 4.6311313767746591e-05  4.6917291165656050e-05  4.7531197697440202e-05  4.8153137114764073e-05 
 4.8783214526869458e-05  4.9421536418338696e-05  5.0068210667090640e-05  5.0723346562612492e-05 
 5.1387054824429902e-05  5.2059447620818806e-05  5.2740638587762151e-05  5.3430742848154647e-05 
 5.4129877031258811e-05  5.4838159292415608e-05  5.5555709333012947e-05  5.6282648420715573e-05 
 5.7019099409959401e-05  5.7765186762714492e-05  5.8521036569519207e-05  5.9286776570789906e-05 
 6.0062536178409325e-05  6.0848446497597546e-05  6.1644640349069053e-05  6.2451252291479811e-05 
 6.3268418644167785e-05  6.4096277510191589e-05  6.4934968799669962e-05  6.5784634253426979e-05 
 6.6645417466946628e-05  6.7517463914640722e-05  6.8400920974434487e-05  6.9295937952673747e-05 
 7.0202666109358037e-05  7.1121258683703959e-05  7.2051870920042957e-05  7.2994660094057810e-05 
 7.3949785539362893e-05  7.4917408674431794e-05  7.5897693029877337e-05  7.6890804276088780e-05 
 7.7896910251230443e-05  7.8916180989606821e-05  7.9948788750398506e-05  8.0994908046774861e-05 
 8.2054715675386843e-05  8.3128390746246131e-05  8.4216114712995133e-05  8.5318071403573143e-05 
 8.6434447051283612e-05  8.7565430326268088e-05  8.8711212367391913e-05  8.9871986814547104e-05 
 9.1047949841378034e-05  9.2239300188435018e-05  9.3446239196762291e-05  9.4668970841924914e-05 
 9.5907701768481137e-05  9.7162641324905836e-05  9.8434001598970942e-05  9.9721997453588790e-05 
 1.0102684656312421e-04  1.0234876945018247e-04  1.0368798952287779e-04  1.0504473311258993e-04 
 1.0641922951221471e-04  1.0781171101491510e-04  1.0922241295337934e-04  1.1065157373959260e-04 
 1.1209943490512930e-04  1.1356624114197246e-04  1.1505224034386736e-04  1.1655768364821574e-04 
 1.1808282547851924e-04  1.1962792358737714e-04  1.2119323910004733e-04  1.2277903655857710e-04 
 1.2438558396651121e-04  1.2601315283418551e-04  1.2766201822461218e-04  1.2933245879996676e-04 
 1.3102475686868230e-04  1.3273919843316022e-04  1.3447607323810551e-04  1.3623567481949408e-04 
 1.3801830055418124e-04  1.3982425171015896e-04  1.4165383349747096e-04  1.4350735511979383e-04 
 1.4538512982669350e-04  1.4728747496656438e-04  1.4921471204026307e-04  1.5116716675544201e-04 
 1.5314516908159515e-04  1.5514905330582331e-04  1.5717915808932995e-04  1.5923582652465547e-04 
 1.6131940619366013e-04  1.6343024922626731e-04  1.6556871235997358e-04  1.6773515700013820e-04 
 1.6992994928106178e-04  1.7215346012786355e-04  1.7440606531916883e-04  1.7668814555061633e-04 
 1.7900008649919679e-04  1.8134227888843313e-04  1.8371511855441394e-04  1.8611900651269004e-04 
 1.8855434902604801e-04  1.9102155767316900e-04  1.9352104941818652e-04  1.9605324668115474e-04 
 1.9861857740943755e-04  2.0121747515003402e-04  2.0385037912284791e-04  2.0651773429491716e-04 
 2.0921999145561443e-04  2.1195760729283153e-04  2.1473104447016072e-04  2.1754077170508604e-04 
 2.2038726384819761e-04  2.2327100196344252e-04  2.2619247340942582e-04  2.2915217192177528e-04 
 2.3215059769658388e-04  2.3518825747494428e-04  2.3826566462858856e-04  2.4138333924665040e-04 
 2.4454180822356059e-04  2.4774160534809397e-04  2.5098327139357995e-04  2.5426735420929592e-04 
 2.5759440881305414e-04  2.6096499748500137e-04  2.6437968986264549e-04  2.6783906303712567e-04 
 2.7134370165074202e-04  2.7489419799576158e-04  2.7849115211451718e-04  2.8213517190081610e-04 
 2.8582687320267514e-04  2.8956687992640111e-04  2.9335582414203183e-04  2.9719434619015806e-04 
 3.0108309479014145e-04  3.0502272714975128e-04  3.0901390907623298e-04  3.1305731508883192e-04 
 3.1715362853278721e-04  3.2130354169482083e-04  3.2550775592013443e-04  3.2976698173093841e-04 
 3.3408193894653247e-04  3.3845335680495565e-04  3.4288197408623063e-04  3.4736853923721843e-04 
 3.5191381049810827e-04  3.5651855603056095e-04  3.6118355404753149e-04  3.6590959294478792e-04 
 3.7069747143415215e-04  3.7554799867848480e-04  3.8046199442843452e-04  3.8544028916097898e-04 
 3.9048372421977682e-04  3.9559315195735704e-04  4.0076943587916787e-04  4.0601345078951232e-04 
 4.1132608293939146e-04  4.1670823017628315e-04  4.2216080209588085e-04  4.2768472019581602e-04 
 4.3328091803139529e-04  4.3895034137337240e-04  4.4469394836778612e-04  4.5051270969788837e-04 
 4.5640760874819344e-04  4.6237964177067112e-04  4.6842981805311637e-04  4.7455916008972115e-04 
 4.8076870375387751e-04  4.8705949847324432e-04  4.9343260740710186e-04  4.9988910762602875e-04 
 5.0643009029392868e-04  5.1305666085244082e-04  5.1976993920776159e-04  5.2657105991991114e-04 
 5.3346117239447754e-04  5.4044144107686742e-04  5.4751304564910235e-04  5.5467718122918590e-04 
 5.6193505857308275e-04  5.6928790427933818e-04  5.7673696099637688e-04  5.8428348763251391e-04 
 5.9192875956871199e-04  5.9967406887412517e-04  6.0752072452446002e-04  6.1547005262319770e-04 
 6.2352339662570706e-04  6.3168211756629226e-04  6.3994759428821052e-04  6.4832122367670063e-04 
 6.5680442089505946e-04  6.6539861962380744e-04  6.7410527230298532e-04  6.8292585037761785e-04 
 6.9186184454639375e-04  7.0091476501359616e-04  7.1008614174433108e-04  7.1937752472309429e-04 
 7.2879048421572372e-04  7.3832661103477744e-04  7.4798751680838480e-04  7.5777483425261589e-04 
 7.6769021744741274e-04  7.7773534211613500e-04  7.8791190590876030e-04  7.9822162868879124e-04 
 8.0866625282391478e-04  8.1924754348046945e-04  8.2996728892176090e-04  8.4082730081028244e-04 
 8.5182941451389155e-04  8.6297548941598971e-04  8.7426740922976430e-04  8.8570708231653955e-04 
 8.9729644200829543e-04  9.0903744693440248e-04  9.2093208135263867e-04  9.3298235548453076e-04 
 9.4519030585508816e-04  9.5755799563697970e-04  9.7008751499921418e-04  9.8278098146038577e-04 
 9.9564054024653794e-04  1.0086683646537129e-03  1.0218666564152422e-03  1.0352376460738472e-03 
 1.0487835933586044e-03  1.0625067875668457e-03  1.0764095479510551e-03  1.0904942241108269e-03 
 1.1047631963899550e-03  1.1192188762787162e-03  1.1338637068214182e-03  1.1487001630292779e-03 
 1.1637307522987070e-03  1.1789580148350665e-03  1.1943845240819670e-03  1.2100128871561887e-03 
 1.2258457452882872e-03  1.2418857742689706e-03  1.2581356849013139e-03  1.2745982234588905e-03 
 1.2912761721498983e-03  1.3081723495873619e-03  1.3252896112654824e-03  1.3426308500422239e-03 
 1.3601989966282150e-03  1.3779970200820404e-03  1.3960279283120260e-03  1.4142947685845779e-03 
 1.4328006280391790e-03  1.4515486342101228e-03  1.4705419555550755e-03  1.4897838019905479e-03 
 1.5092774254343861e-03  1.5290261203553493e-03  1.5490332243298826e-03  1.5693021186061764e-03 
 1.5898362286756054e-03  1.6106390248516449e-03  1.6317140228563607e-03  1.6530647844145781e-03 
 1.6746949178558144e-03  1.6966080787241039e-03  1.7188079703957893e-03  1.7412983447054008e-03 
 1.7640830025797262e-03  1.7871657946801757e-03  1.8105506220535534e-03  1.8342414367913441e-03 
 1.8582422426976259e-03  1.8825570959657184e-03  1.9071901058636972e-03  1.9321454354288639e-03 
 1.9574273021713108e-03  1.9830399787866917e-03  2.0089877938783141e-03  2.0352751326886869e-03 
 2.0619064378406362e-03  2.0888862100881195e-03  2.1162190090768568e-03  2.1439094541149339e-03 
 2.1719622249534681e-03  2.2003820625775003e-03  2.2291737700072299e-03  2.2583422131097403e-03 
 2.2878923214213385e-03  2.3178290889806627e-03  2.3481575751726838e-03  2.3788829055837492e-03 
 2.4100102728678297e-03  2.4415449376240825e-03  2.4734922292859070e-03  2.5058575470216309e-03 
 2.5386463606469857e-03  2.5718642115495137e-03  2.6055167136250787e-03  2.6396095542266310e-03 
 2.6741484951253711e-03  2.7091393734845195e-03  2.7445881028458009e-03  2.7805006741288482e-03 
 2.8168831566436838e-03  2.8537416991164465e-03  2.8910825307285411e-03  2.9289119621693856e-03 
 2.9672363867029325e-03  3.0060622812481397e-03  3.0453962074735966e-03  3.0852448129064540e-03 
 3.1256148320558739e-03  3.1665130875511770e-03  3.2079464912948834e-03  3.2499220456308417e-03 
 3.2924468445276406e-03  3.3355280747775101e-03  3.3791730172108925e-03  3.4233890479269430e-03 
 3.4681836395400903e-03  3.5135643624429323e-03  3.5595388860856498e-03  3.6061149802721630e-03 
 3.6533005164732448e-03  3.7011034691568192e-03  3.7495319171356686e-03  3.7985940449327591e-03 
 3.8482981441644651e-03  3.8986526149418564e-03  3.9496659672903440e-03  4.0013468225878895e-03 
 4.0537039150220456e-03  4.1067460930660476e-03  4.1604823209742308e-03  4.2149216802970131e-03 
 4.2700733714156830e-03  4.3259467150973101e-03  4.3825511540699592e-03  4.4398962546185429e-03 
 4.4979917082015397e-03  4.5568473330888778e-03  4.6164730760212460e-03  4.6768790138911132e-03 
 4.7380753554457575e-03  4.8000724430125458e-03  4.8628807542468386e-03  4.9265109039027272e-03 
 4.9909736456269478e-03  5.0562798737762782e-03  5.1224406252587135e-03  5.1894670813987217e-03 
 5.2573705698269191e-03  5.3261625663944727e-03  5.3958546971125242e-03  5.4664587401170445e-03 
 5.5379866276593446e-03  5.6104504481226643e-03  5.6838624480651297e-03  5.7582350342894615e-03 
 5.8335807759397453e-03  5.9099124066256479e-03  5.9872428265744402e-03  6.0655851048111355e-03 
 6.1449524813672217e-03  6.2253583695182418e-03  6.3068163580506653e-03  6.3893402135584325e-03 
 6.4729438827695390e-03  6.5576414949030650e-03  6.6434473640570521e-03  6.7303759916276171e-03 
 6.8184420687597081e-03  6.9076604788299708e-03  6.9980462999620560e-03  7.0896148075748622e-03 
 7.1823814769641173e-03  7.2763619859177427e-03  7.3715722173654328e-03  7.4680282620629137e-03 
 7.5657464213113182e-03  7.6647432097121269e-03  7.7650353579582073e-03  7.8666398156613179e-03 
 7.9695737542166394e-03  8.0738545697047800e-03  8.1794998858317550e-03  8.2865275569074370e-03 
 8.3949556708629736e-03  8.5048025523077001e-03  8.6160867656260107e-03  8.7288271181148337e-03 
 8.8430426631620710e-03  8.9587527034666794e-03  9.0759767943008711e-03  9.1947347468150035e-03 
 9.3150466313857046e-03  9.4369327810078230e-03  9.5604137947307537e-03  9.6855105411396952e-03 
 9.8122441618825381e-03  9.9406360752428320e-03  1.0070707979759518e-02  1.0202481857894043e-02 
 1.0335979979745445e-02  1.0471224906814056e-02  1.0608239495814447e-02  1.0747046902538276e-02 
 1.0887670585767634e-02  1.1030134311239699e-02  1.1174462155663149e-02  1.1320678510787208e-02 
 1.1468808087523900e-02  1.1618875920124255e-02  1.1770907370409161e-02  1.1924928132055562e-02 
 1.2080964234938776e-02  1.2239042049531548e-02  1.2399188291360793e-02  1.2561430025522546e-02 
 1.2725794671256032e-02  1.2892310006577581e-02  1.3061004172975189e-02  1.3231905680164482e-02 
 1.3405043410906939e-02  1.3580446625891151e-02  1.3758144968677902e-02  1.3938168470710078e-02 
 1.4120547556387990e-02  1.4305313048211202e-02  1.4492496171987593e-02  1.4682128562110592e-02 
 1.4874242266905471e-02  1.5068869754045597e-02  1.5266043916039534e-02  1.5465798075789933e-02 
 1.5668165992225234e-02  1.5873181866004973e-02  1.6080880345299774e-02  1.6291296531646980e-02 
 1.6504465985882899e-02  1.6720424734152656e-02  1.6939209273998716e-02  1.7160856580529051e-02 
 1.7385404112665981e-02  1.7612889819476892e-02  1.7843352146587679e-02  1.8076830042680146e-02 
 1.8313362966074425e-02  1.8552990891397551e-02  1.8795754316339230e-02  1.9041694268496088e-02 
 1.9290852312305411e-02  1.9543270556069598e-02  1.9798991659072628e-02  2.0058058838789559e-02 
 2.0320515878190365e-02  2.0586407133139382e-02  2.0855777539891537e-02  2.1128672622686702e-02 
 2.1405138501443387e-02  2.1685221899553134e-02  2.1968970151776814e-02  2.2256431212244417e-02 
 2.2547653662559348e-02  2.2842686720008852e-02  2.3141580245881841e-02  2.3444384753895580e-02 
 2.3751151418732633e-02  2.4061932084689493e-02  2.4376779274438411e-02  2.4695746197903778e-02 
 2.5018886761254858e-02  2.5346255576015962e-02  2.5677907968295950e-02  2.6013899988138488e-02 
 2.6354288418994617e-02  2.6699130787319315e-02  2.7048485372293585e-02  2.7402411215673803e-02 
 2.7760968131769839e-02  2.8124216717553933e-02  2.8492218362901649e-02  2.8865035260966933e-02 
 2.9242730418692901e-02  2.9625367667460149e-02  3.0013011673874442e-02  3.0405727950695488e-02 
 3.0803582867908803e-02  3.1206643663942279e-02  3.1614978457029791e-02  3.2028656256723249e-02 
 3.2447746975555386e-02  3.2872321440855175e-02  3.3302451406717774e-02  3.3738209566131161e-02 
 3.4179669563261426e-02  3.4626906005898836e-02  3.5079994478066603e-02  3.5539011552794937e-02 
 3.6004034805061980e-02  3.6475142824904161e-02  3.6952415230698130e-02  3.7435932682616399e-02 
 3.7925776896259179e-02  3.8422030656464434e-02  3.8924777831298829e-02  3.9434103386231413e-02 
 3.9950093398493244e-02  4.0472835071624511e-02  4.1002416750212149e-02  4.1538927934820287e-02 
 4.2082459297116077e-02  4.2633102695193402e-02  4.3190951189097125e-02  4.3756099056550486e-02 
 4.4328641808888118e-02  4.4908676207197906e-02  4.5496300278673699e-02  4.6091613333182187e-02 
 4.6694715980046486e-02  4.7305710145049355e-02  4.7924699087658895e-02  4.8551787418479674e-02 
 4.9187081116932166e-02  4.9830687549163401e-02  5.0482715486192285e-02  5.1143275122292095e-02 
 5.1812478093613508e-02  5.2490437497051456e-02  5.3177267909358721e-02  5.3873085406509709e-02 
 5.4578007583317552e-02  5.5292153573307967e-02  5.6015644068852892e-02  5.6748601341568110e-02 
 5.7491149262977208e-02  5.8243413325446247e-02  5.9005520663392250e-02  5.9777600074769212e-02 
 6.0559782042835276e-02  6.1352198758204725e-02  6.2154984141188530e-02  6.2968273864427021e-02 
 6.3792205375819172e-02  6.4626917921751473e-02  6.5472552570630851e-02  6.6329252236725686e-02 
 6.7197161704318553e-02  6.8076427652175212e-02  6.8967198678333549e-02  6.9869625325217205e-02 
 7.0783860105077229e-02  7.1710057525767451e-02  7.2648374116856401e-02  7.3598968456081243e-02 
 7.4562001196147837e-02  7.5537635091881355e-02  7.6526035027732281e-02  7.7527368045642267e-02 
 7.8541803373274585e-02  7.9569512452614094e-02  8.0610668968941215e-02  8.1665448880185301e-02 
 8.2734030446661930e-02  8.3816594261198904e-02  8.4913323279657629e-02  8.6024402851852533e-02 
 8.7150020752875812e-02  8.8290367214831786e-02  8.9445634958986706e-02  9.0616019228338937e-02 
 9.1801717820615664e-02  9.3002931121701035e-02  9.4219862139501953e-02  9.5452716538256835e-02 
 9.6701702673293380e-02  9.7967031626241111e-02  9.9248917240704698e-02  1.0054757615840397e-01 
 1.0186322785578701e-01  1.0319609468112198e-01  1.0454640189207495e-01  1.0591437769377803e-01 
 1.0730025327739783e-01  1.0870426285920651e-01  1.1012664372016504e-01  1.1156763624602435e-01 
 1.1302748396795101e-01  1.1450643360368459e-01  1.1600473509923358e-01  1.1752264167111684e-01 
 1.1906040984915778e-01  1.2061829951983850e-01  1.2219657397022131e-01  1.2379549993244476e-01 
 1.2541534762880205e-01  1.2705639081740927e-01  1.2871890683847112e-01  1.3040317666115214e-01 
 1.3210948493106131e-01  1.3383812001835693e-01  1.3558937406648333e-01  1.3736354304154280e-01 
 1.3916092678231481e-01  1.4098182905092951e-01  1.4282655758420421e-01  1.4469542414565165e-01 
 1.4658874457816881e-01  1.4850683885741506e-01  1.5045003114588890e-01  1.5241864984771197e-01 
 1.5441302766413045e-01  1.5643350164974215e-01  1.5848041326945950e-01  1.6055410845621809e-01 
 1.6265493766944011e-01  1.6478325595426274e-01  1.6693942300154202e-01  1.6912380320864026e-01 
 1.7133676574101178e-01  1.7357868459459161e-01  1.7584993865900195e-01  1.7815091178158554e-01 
 1.8048199283227664e-01  1.8284357576932098e-01  1.8523605970585574e-01  1.8765984897736052e-01 
 1.9011535320999109e-01  1.9260298738980711e-01  1.9512317193290568e-01  1.9767633275647298e-01 
 2.0026290135076491e-01  2.0288331485203018e-01  2.0553801611638739e-01  2.0822745379466862e-01 
 2.1095208240824298e-01  2.1371236242583036e-01  2.1650876034132380e-01  2.1934174875262671e-01 
 2.2221180644152336e-01  2.2511941845459429e-01  2.2806507618518998e-01  2.3104927745647794e-01 
 2.3407252660557568e-01  2.3713533456878502e-01  2.4023821896794151e-01  2.4338170419789382e-01 
 2.4656632151512753e-01  2.4979260912754903e-01  2.5306111228544365e-01  2.5637238337362439e-01 
 2.5972698200478639e-01  2.6312547511408252e-01  2.6656843705493749e-01  2.7005644969611298e-01 
 2.7359010252004756e-01  2.7716999272247894e-01  2.8079672531337180e-01  2.8447091321916601e-01 
 2.8819317738636258e-01  2.9196414688646505e-01  2.9578445902229422e-01  2.9965475943569386e-01 
 3.0357570221664537e-01  3.0754795001381108e-01  3.1157217414652300e-01  3.1564905471823756e-01 
 3.1977928073147482e-01  3.2396355020426132e-01  3.2820257028809691e-01  3.3249705738746510e-01 
 3.3684773728090750e-01  3.4125534524368001e-01  3.4572062617201932e-01  3.5024433470903032e-01 
 3.5482723537222255e-01  3.5947010268271590e-01  3.6417372129613618e-01  3.6893888613522419e-01 
 3.7376640252417925e-01  3.7865708632476114e-01  3.8361176407417241e-01  3.8863127312474532e-01 
 3.9371646178545638e-01  3.9886818946529240e-01  4.0408732681849291e-01  4.0937475589169275e-01 
 4.1473137027298973e-01  4.2015807524296367e-01  4.2565578792767128e-01  4.3122543745363989e-01 
 4.3686796510489639e-01  4.4258432448204360e-01  4.4837548166342189e-01  4.5424241536837823e-01 
 4.6018611712267277e-01  4.6620759142604845e-01  4.7230785592199437e-01  4.7848794156972951e-01 
 4.8474889281843747e-01  4.9109176778378100e-01  4.9751763842672592e-01  5.0402759073470516e-01 
 5.1062272490515281e-01  5.1730415553144105e-01  5.2407301179124799e-01  5.3093043763739212e-01 
 5.3787759199116369e-01  5.4491564893818156e-01  5.5204579792682196e-01  5.5926924396923439e-01 
 5.6658720784499250e-01  5.7400092630740873e-01  5.8151165229254875e-01  5.8912065513098011e-01 
 5.9682922076229283e-01  6.0463865195242572e-01  6.1255026851383687e-01  6.2056540752855593e-01 
 6.2868542357415280e-01  6.3691168895266603e-01  6.4524559392252367e-01  6.5368854693350109e-01 
 6.6224197486475234e-01  6.7090732326595559e-01  6.7968605660161630e-01  6.8857965849856018e-01 
 6.9758963199667634e-01  7.0671749980293097e-01  7.1596480454870814e-01  7.2533310905051962e-01 
 7.3482399657412356e-01  7.4443907110210084e-01  7.5417995760493128e-01  7.6404830231561827e-01 
 7.7404577300790545e-01  7.8417405927813466e-01  7.9443487283079217e-01  8.0482994776778971e-01 
 8.1536104088153338e-01  8.2602993195182417e-01  8.3683842404664588e-01  8.4778834382688772e-01 
 8.5888154185505639e-01  8.7011989290801817e-01  8.8150529629385077e-01  8.9303967617282498e-01 
 9.0472498188259320e-01  9.1656318826763261e-01  9.2855629601299827e-01  9.4070633198244391e-01 
 9.5301534956096667e-01  9.6548542900183409e-01  9.7811867777815142e-01  9.9091723093903028e-01 
 1.0038832514704168e+00  1.0170189306606410e+00  1.0303264884707504e+00  1.0438081739096881e+00 
 1.0574662654143807e+00  1.0713030712348006e+00  1.0853209298240658e+00  1.0995222102336384e+00 
 1.1139093125137098e+00  1.1284846681188079e+00  1.1432507403187204e+00  1.1582100246147944e+00 
 1.1733650491616801e+00  1.1887183751945967e+00  1.2042725974621857e+00  1.2200303446650309e+00 
 1.2359942798999151e+00  1.2521671011098883e+00  1.2685515415402278e+00  1.2851503702003628e+00 
 1.3019663923318441e+00  1.3190024498824353e+00  1.3362614219864104e+00  1.3537462254511323e+00 
 1.3714598152500053e+00  1.3894051850218596e+00  1.4075853675769017e+00  1.4260034354092535e+00 
 1.4446625012162155e+00  1.4635657184243198e+00  1.4827162817222654e+00  1.5021174276008309e+00 
 1.5217724348998452e+00  1.5416846253623233e+00  1.5618573641958462e+00  1.5822940606412899e+00 
 1.6029981685489949e+00  1.6239731869624752e+00  1.6452226607097657e+00  1.6667501810025052e+00 
 1.6885593860428607e+00  1.7106539616383920e+00  1.7330376418249653e+00  1.7557142094978013e+00 
 1.7786874970508122e+00  1.8019613870242728e+00  1.8255398127609828e+00  1.8494267590710110e+00 
 1.8736262629051368e+00  1.8981424140371050e+00  1.9229793557548085e+00  1.9481412855605111e+00 
 1.9736324558802385e+00  1.9994571747824454e+00  2.0256198067060924e+00  2.0521247731982437e+00 
 2.0789765536613207e+00  2.1061796861101323e+00  2.1337387679388078e+00  2.1616584566977695e+00 
 2.1899434708808729e+00  2.2185985907228294e+00  2.2476286590070966e+00  2.2770385818843097e+00 
 2.3068333297014338e+00  2.3370179378417641e+00  2.3675975075759181e+00  2.3985772069239633e+00 
 2.4299622715288245e+00  2.4617580055411197e+00  2.4939697825155731e+00  2.5266030463191611e+00 
 2.5596633120511370e+00  2.5931561669750955e+00  2.6270872714632358e+00  2.6614623599529748e+00 
 2.6962872419160839e+00  2.7315678028405013e+00  2.7673100052249993e+00  2.8035198895868407e+00 
 2.8402035754826711e+00  2.8773672625427174e+00  2.9150172315185459e+00  2.9531598453445236e+00 
 2.9918015502131712e+00  3.0309488766645813e+00  3.0706084406901000e+00  3.1107869448504397e+00 
 3.1514911794084335e+00  3.1927280234766009e+00  3.2345044461797379e+00  3.2768275078327123e+00 
 3.3197043611336770e+00  3.3631422523728909e+00  3.4071485226573595e+00  3.4517306091515003e+00 
 3.4968960463340468e+00  3.5426524672713691e+00  3.5890076049075148e+00  3.6359692933710757e+00 
 3.6835454692991751e+00  3.7317441731787802e+00  3.7805735507055647e+00  3.8300418541605494e+00 
 3.8801574438047575e+00  3.9309287892921185e+00  3.9823644711008606e+00  4.0344731819836310e+00 
 4.0872637284365938e+00  4.1407450321877457e+00  4.1949261317047108e+00  4.2498161837222641e+00 
 4.3054244647898390e+00  4.3617603728392913e+00  4.4188334287731719e+00  4.4766532780737593e+00 
 4.5352296924332096e+00  4.5945725714049654e+00  4.6546919440768164e+00  4.7155979707658338e+00 
 4.7773009447354884e+00  4.8398112939352433e+00  4.9031395827628916e+00  4.9672965138499734e+00 
 5.0322929298705423e+00  5.0981398153736039e+00  5.1648482986395283e+00  5.2324296535607626e+00 
 5.3008953015471363e+00  5.3702568134561162e+00  5.4405259115483000e+00  5.5117144714685136e+00 
 5.5838345242528291e+00  5.6568982583617995e+00  5.7309180217403988e+00  5.8059063239048117e+00 
 5.8818758380565823e+00  5.9588394032244185e+00  6.0368100264340132e+00  6.1158008849062684e+00 
 6.1958253282842701e+00  6.2768968808894154e+00  6.3590292440070524e+00  6.4422362982020314e+00 
 6.5265321056645522e+00  6.6119309125867076e+00  6.6984471515701269e+00  6.7860954440651122e+00 
 6.8748906028417087e+00  6.9648476344930899e+00  7.0559817419717250e+00  7.1483083271586594e+00 
 7.2418429934665491e+00  7.3366015484766214e+00  7.4326000066102074e+00  7.5298545918352175e+00 
 7.6283817404080310e+00  7.7281981036512590e+00  7.8293205507678634e+00  7.9317661716920886e+00 
 8.0355522799777006e+00  8.1406964157240189e+00  8.2472163485402419e+00  8.3551300805485393e+00 
 8.4644558494264679e+00  8.5752121314891721e+00  8.6874176448119336e+00  8.8010913523935628e+00 
 8.9162524653612110e+00  9.0329204462170321e+00  9.1511150121274909e+00  9.2708561382555370e+00 
 9.3921640611364818e+00  9.5150592820980187e+00  9.6395625707249906e+00  9.7656949683695071e+00 
 9.8934777917069763e+00  1.0022932636338679e+01  1.0154081380441472e+01  1.0286946188465254e+01 
 1.0421549514878818e+01  1.0557914107964688e+01  1.0696063013663663e+01  1.0836019579469610e+01 
 1.0977807458375265e+01  1.1121450612869628e+01  1.1266973318987715e+01  1.1414400170413176e+01 
 1.1563756082634814e+01  1.1715066297157277e+01  1.1868356385766948e+01  1.2023652254853653e+01 
 1.2180980149788882e+01  1.2340366659361337e+01  1.2501838720270488e+01  1.2665423621678954e+01 
 1.2831149009824415e+01  1.2999042892691913e+01  1.3169133644747253e+01  1.3341450011732372e+01 
 1.3516021115523413e+01  1.3692876459052416e+01  1.3872045931293368e+01  1.4053559812313521e+01 
 1.4237448778390812e+01  1.4423743907198130e+01  1.4612476683055673e+01  1.4803679002251759e+01 
 1.4997383178433413e+01  1.5193621948067445e+01  1.5392428475972991e+01  1.5593836360926446e+01 
 1.5797879641339737e+01  1.6004592801012894e+01  1.6214010774961903e+01  1.6426168955322797e+01 
 1.6641103197333006e+01  1.6858849825391005e+01  1.7079445639195185e+01  1.7302927919963121e+01 
 1.7529334436732178e+01  1.7758703452742584e+01  1.7991073731903903e+01  1.8226484545346413e+01 
 1.8464975678057876e+01  1.8706587435607364e+01  1.8951360650956957e+01  1.9199336691362635e+01 
 1.9450557465365428e+01  1.9705065429874082e+01  1.9962903597340340e+01  2.0224115543028198e+01 
 2.0488745412378172e+01  2.0756837928468038e+01  2.1028438399571094e+01  2.1303592726813399e+01 
 2.1582347411931146e+01  2.1864749565129582e+01  2.2150846913044745e+01  2.2440687806809411e+01 
 2.2734321230224396e+01  2.3031796808037175e+01  2.3333164814328416e+01  2.3638476181008464e+01 
 2.3947782506424968e+01  2.4261136064083093e+01  2.4578589811479901e+01  2.4900197399054267e+01 
 2.5226013179253957e+01  2.5556092215721289e+01  2.5890490292599051e+01  2.6229263923958136e+01 
 2.6572470363348550e+01  2.6920167613475424e+01  2.7272414436001579e+01  2.7629270361478401e+01 
 2.7990795699406647e+01  2.8357051548428949e+01  2.8728099806655411e+01  2.9104003182124849e+01 
 2.9484825203402416e+01  2.9870630230316092e+01  3.0261483464833681e+01  3.0657450962082084e+01 
 3.1058599641510778e+01  3.1464997298201361e+01  3.1876712614325076e+01  3.2293815170750271e+01 
 3.2716375458801728e+01  3.3144464892173865e+01  3.3578155818999804e+01  3.4017521534078419e+01 
 3.4462636291261283e+01  3.4913575316001776e+01  3.5370414818068362e+01  3.5833232004424282e+01 
 3.6302105092275433e+01  3.6777113322289708e+01  3.7258336971988534e+01  3.7745857369314074e+01 
 3.8239756906373820e+01  3.8740119053365063e+01  3.9247028372681555e+01  3.9760570533204763e+01 
 4.0280832324782075e+01  4.0807901672894559e+01  4.1341867653516509e+01  4.1882820508169559e+01 
 4.2430851659173648e+01  4.2986053725097669e+01  4.3548520536412198e+01  4.4118347151347066e+01 
 4.4695629871956456e+01  4.5280466260394213e+01  4.5872955155401776e+01  4.6473196689012681e+01 
 4.7081292303474719e+01  4.7697344768394089e+01  4.8321458198103606e+01  4.8953738069258350e+01 
 4.9594291238661434e+01  5.0243225961323056e+01  5.0900651908755890e+01  5.1566680187509768e+01 
 5.2241423357949031e+01  5.2924995453275422e+01  5.3617511998800026e+01  5.4319090031467297e+01 
 5.5029848119634572e+01  5.5749906383110428e+01  5.6479386513455204e+01  5.7218411794547251e+01 
 5.7967107123417840e+01  5.8725599031359600e+01  5.9494015705310275e+01  6.0272487009516659e+01 
 6.1061144507481991e+01  6.1860121484200533e+01  6.2669552968682972e+01  6.3489575756776716e+01 