  <PP_INFO>

############################################################
#    Opium Parameter File                                  #
############################################################
#-----------------------------------------------------------
#Command line   : opium Se Se.log ae ps nl tc2 ke upf rpt 
 
#Opium version  : 4.1 
#Compile Host   : andes-login5.olcf.ornl.gov 
#Compile OS     : Linux 4.18.0-348.12.2.el8_5.x86_64 x86_64 
#Compile Date   : Thu Jun 30 15:38:05 EDT 2022 
#-----------------------------------------------------------
#Execution Host : andes-login5.olcf.ornl.gov 
#Execution Date : Thu Jun 30 16:17:49 2022
 
#-----------------------------------------------------------
############################################################
[Atom]
Se
11
100   2.00 -
200   2.00 -
210   6.00 -
300   2.00 -
310   6.00 -
320  10.00 -
400   2.00 -
410   3.50 -
420   0.50 -
500   0.00 -
510   0.00 -

[Pseudo]
5 -1 -1 -1 -1 -1
g

[Gaussinfo]
6 4
2 2 2 4
2 4.17536331935161 71.37928031464314
2 2.14491059745542 0.42619859321245
2 4.28772186507645 50.94828961394475
2 2.09538253707367 5.54288117697892
2 1.39403720595047 6.20469719059516
2 1.69659923150419 0.53395702862692
1 2.97705189898323 6.0
3 7.01667360591764 17.862311393899380
2 3.96066255032528 -20.00913150638712
2 5.02826321004214 10.00573531473560

[KBdesign]
s

[Relativity]
nrl

[XC]
pbe

[Configs]
15

400   2.00 -
410   3.50 -
420   0.50 -
500   0.00 -
510   0.00 -

400   2.00 -
410   3.00 -
420   1.00 -
500   0.00 -
510   0.00 -

400   2.00 -
410   3.00 -
420   0.00 -
500   1.00 -
510   0.00 -

400   1.00 -
410   4.50 -
420   0.50 -
500   0.00 -
510   0.00 -

400   2.00 -
410   3.00 -
420   0.00 -
500   0.00 -
510   0.00 -

400   2.00 -
410   2.00 -
420   1.00 -
500   0.00 -
510   0.00 -

400   2.00 -
410   2.00 -
420   0.00 -
500   1.00 -
510   0.00 -

400   2.00 -
410   2.00 -
420   0.00 -
500   0.00 -
510   0.00 -

400   2.00 -
410   1.00 -
420   1.00 -
500   0.00 -
510   0.00 -

400   2.00 -
410   1.00 -
420   0.00 -
500   0.00 -
510   0.00 -

400   2.00 -
410   0.00 -
420   1.00 -
500   0.00 -
510   0.00 -

400   2.00 -
410   0.00 -
420   0.00 -
500   1.00 -
510   0.00 -

400   2.00 -
410   1.00 -
420   0.00 -
500   0.00 -
510   0.00 -

400   1.00 -
410   1.00 -
420   0.00 -
500   0.00 -
510   0.00 -

400   1.00 -
410   0.00 -
420   0.00 -
500   0.00 -
510   0.00 -

############################################################
  </PP_INFO>



<PP_HEADER>
   0         Version Number
   Se        Element
   NC        Norm - Conserving pseudopotential
    F      Nonlinear Core Correction
SLA  PW   PBE  PBE     PBE  Exchange-Correlation functional
 6          Z valence
 0          Total energy
 0.000000   0.000000     Suggested cutoff for wfc and rho
 2           Max angular momentum component
 1167           Number of points in mesh
 3  2     Number of Wavefuncitons, Number of Projectors
 Wavefunctions         nl  l   occ
                       S  0  2.000000
                       P  1  3.500000
                       D  2  0.500000
</PP_HEADER>
<PP_MESH>
  <PP_R>
 3.0867895949930418e-05  3.1271798274111641e-05  3.1680985606631101e-05  3.2095527101121888e-05 
 3.2515492816083226e-05  3.2940953726720530e-05  3.3371981736940273e-05  3.3808649691502114e-05 
 3.4251031388329660e-05  3.4699201590982610e-05  3.5153236041291893e-05  3.5613211472160258e-05 
 3.6079205620530305e-05  3.6551297240522224e-05  3.7029566116743443e-05  3.7514093077772317e-05 
 3.8004960009818491e-05  3.8502249870561814e-05  3.9006046703172341e-05  3.9516435650513866e-05 
 4.0033502969533272e-05  4.0557336045838134e-05  4.1088023408465132e-05  4.1625654744841666e-05 
 4.2170320915943123e-05  4.2722113971648825e-05  4.3281127166298495e-05  4.3847454974452538e-05 
 4.4421193106858453e-05  4.5002438526626152e-05  4.5591289465615022e-05  4.6187845441035251e-05 
 4.6792207272266606e-05  4.7404477097896904e-05  4.8024758392983992e-05  4.8653155986543062e-05 
 4.9289776079263078e-05  4.9934726261454926e-05  5.0588115531234438e-05  5.1250054312943336e-05 
 5.1920654475811258e-05  5.2600029352861726e-05  5.3288293760065984e-05  5.3985564015746988e-05 
 5.4691957960237511e-05  5.5407594975795479e-05  5.6132596006779781e-05  5.6867083580090246e-05 
 5.7611181825874894e-05  5.8365016498508324e-05  5.9128714997844413e-05  5.9902406390747168e-05 
 6.0686221432903468e-05  6.1480292590921016e-05  6.2284754064715456e-05  6.3099741810190599e-05 
 6.3925393562215134e-05  6.4761848857900311e-05  6.5609249060181999e-05  6.6467737381711151e-05 
 6.7337458909057479e-05  6.8218560627229092e-05  6.9111191444513464e-05  7.0015502217643299e-05 
 7.0931645777291575e-05  7.1859776953900391e-05  7.2800052603847636e-05  7.3752631635956112e-05 
 7.4717675038349514e-05  7.5695345905659652e-05  7.6685809466590059e-05  7.7689233111839979e-05 
 7.8705786422393704e-05  7.9735641198180185e-05  8.0778971487107697e-05  8.1835953614478295e-05 
 8.2906766212787305e-05  8.3991590251912332e-05  8.5090609069698038e-05  8.6204008402940402e-05 
 8.7331976418776732e-05  8.8474703746486399e-05  8.9632383509707578e-05  9.0805211359075636e-05 
 9.1993385505288565e-05  9.3197106752605056e-05  9.4416578532780857e-05  9.5652006939449366e-05 
 9.6903600762951610e-05  9.8171571525622705e-05  9.9456133517539504e-05  1.0075750383273596e-04 
 1.0207590240589277e-04  1.0341155204950668e-04  1.0476467849154656e-04  1.0613551041360149e-04 
 1.0752427948952910e-04  1.0893122042460862e-04  1.1035657099520675e-04  1.1180057208896238e-04 
 1.1326346774549723e-04  1.1474550519765907e-04  1.1624693491330473e-04  1.1776801063762965e-04 
 1.1930898943605164e-04  1.2087013173765534e-04  1.2245170137920521e-04  1.2405396564973506e-04 
 1.2567719533572016e-04  1.2732166476684087e-04  1.2898765186234503e-04  1.3067543817801706e-04 
 1.3238530895376145e-04  1.3411755316180876e-04  1.3587246355555317e-04  1.3765033671902808e-04 
 1.3945147311702962e-04  1.4127617714589590e-04  1.4312475718495087e-04  1.4499752564862080e-04 
 1.4689479903923355e-04  1.4881689800050771e-04  1.5076414737174258e-04  1.5273687624271670e-04 
 1.5473541800930420e-04  1.5676011042982057e-04  1.5881129568210377e-04  1.6088932042134354e-04 
 1.6299453583866664e-04  1.6512729772048923e-04  1.6728796650864567e-04  1.6947690736130350e-04 
 1.7169449021467678e-04  1.7394108984554585e-04  1.7621708593459546e-04  1.7852286313058171e-04 
 1.8085881111533871e-04  1.8322532466963568e-04  1.8562280373989582e-04  1.8805165350578823e-04 
 1.9051228444870425e-04  1.9300511242112991e-04  1.9553055871692545e-04  1.9808905014252577e-04 
 2.0068101908907128e-04  2.0330690360548308e-04  2.0596714747249433e-04  2.0866220027765015e-04 
 2.1139251749128929e-04  2.1415856054351893e-04  2.1696079690219851e-04  2.1979970015194224e-04 
 2.2267575007415622e-04  2.2558943272812254e-04  2.2854124053314458e-04  2.3153167235176700e-04 
 2.3456123357408465e-04  2.3763043620315475e-04  2.4073979894152658e-04  2.4388984727890359e-04 
 2.4708111358095233e-04  2.5031413717927300e-04  2.5358946446254885e-04  2.5690764896888629e-04 
 2.6026925147936482e-04  2.6367484011280906e-04  2.6712499042180402e-04  2.7062028548996360e-04 
 2.7416131603047342e-04  2.7774868048592284e-04  2.8138298512944313e-04  2.8506484416716908e-04 
 2.8879487984204106e-04  2.9257372253896623e-04  2.9640201089135414e-04  3.0028039188904822e-04 
 3.0420952098766788e-04  3.0819006221938260e-04  3.1222268830513475e-04  3.1630808076833045e-04 
 3.2044693005001986e-04  3.2463993562558237e-04  3.2888780612294036e-04  3.3319125944231761e-04 
 3.3755102287756807e-04  3.4196783323908888e-04  3.4644243697834367e-04  3.5097559031401431e-04 
 3.5556805935980386e-04  3.6022062025391167e-04  3.6493405929020222e-04  3.6970917305109122e-04 
 3.7454676854216948e-04  3.7944766332858882e-04  3.8441268567323286e-04  3.8944267467669514e-04 
 3.9453848041908933e-04  3.9970096410371370e-04  4.0493099820259861e-04  4.1022946660395466e-04 
 4.1559726476155299e-04  4.2103529984605743e-04  4.2654449089834048e-04  4.3212576898480254e-04 
 4.3778007735472422e-04  4.4350837159967769e-04  4.4931161981502437e-04  4.5519080276352494e-04 
 4.6114691404109065e-04  4.6718096024470367e-04  4.7329396114253374e-04  4.7948694984628246e-04 
 4.8576097298578050e-04  4.9211709088587113e-04  4.9855637774560838e-04  5.0507992181979657e-04 
 5.1168882560291128e-04  5.1838420601542183e-04  5.2516719459255409e-04  5.3203893767552065e-04 
 5.3900059660525834e-04  5.4605334791869603e-04  5.5319838354759177e-04  5.6043691101997310e-04 
 5.6777015366421058e-04  5.7519935081576520e-04  5.8272575802663774e-04  5.9035064727756077e-04 
 5.9807530719296507e-04  6.0590104325876208e-04  6.1382917804297292e-04  6.2186105141924584e-04 
 6.2999802079329828e-04  6.3824146133232087e-04  6.4659276619738503e-04  6.5505334677888984e-04 
 6.6362463293509087e-04  6.7230807323374853e-04  6.8110513519694087e-04  6.9001730554907759e-04 
 6.9904609046816013e-04  7.0819301584032946e-04  7.1745962751774343e-04  7.2684749157983096e-04 
 7.3635819459796307e-04  7.4599334390358619e-04  7.5575456785986501e-04  7.6564351613688116e-04 
 7.7566185999043008e-04  7.8581129254446768e-04  7.9609352907725249e-04  8.0651030731123069e-04 
 8.1706338770671692e-04  8.2775455375941559e-04  8.3858561230183584e-04  8.4955839380864968e-04 
 8.6067475270604817e-04  8.7193656768514327e-04  8.8334574201947061e-04  8.9490420388664788e-04 
 9.0661390669424021e-04  9.1847682940989265e-04  9.3049497689577903e-04  9.4267038024742941e-04 
 9.5500509713698778e-04  9.6750121216096681e-04  9.8016083719254738e-04  9.9298611173849146e-04 
 1.0059792033007223e-03  1.0191423077426389e-03  1.0324776496602210e-03  1.0459874827579924e-03 
 1.0596740902299017e-03  1.0735397851451864e-03  1.0875869108392892e-03  1.1018178413098856e-03 
 1.1162349816180965e-03  1.1308407682949486e-03  1.1456376697531528e-03  1.1606281867042735e-03 
 1.1758148525813548e-03  1.1912002339670756e-03  1.2067869310275082e-03  1.2225775779515543e-03 
 1.2385748433961271e-03  1.2547814309371616e-03  1.2712000795265263e-03  1.2878335639549096e-03 
 1.3046846953207699e-03  1.3217563215054148e-03  1.3390513276543030e-03  1.3565726366646358e-03 
 1.3743232096793390e-03  1.3923060465875002e-03  1.4105241865313579e-03  1.4289807084199239e-03 
 1.4476787314493245e-03  1.4666214156299556e-03  1.4858119623205289e-03  1.5052536147691113e-03 
 1.5249496586612382e-03  1.5449034226752067e-03  1.5651182790446267e-03  1.5855976441283383e-03 
 1.6063449789877841e-03  1.6273637899719346e-03  1.6486576293098735e-03  1.6702300957111304e-03 
 1.6920848349738717e-03  1.7142255406010492e-03  1.7366559544246124e-03  1.7593798672378813e-03 
 1.7824011194362073e-03  1.8057236016660054e-03  1.8293512554822817e-03  1.8532880740147672e-03 
 1.8775381026427665e-03  1.9021054396788349e-03  1.9269942370614037e-03  1.9522087010564705e-03 
 1.9777530929684594e-03  2.0036317298604035e-03  2.0298489852835322e-03  2.0564092900164101e-03 
 2.0833171328137538e-03  2.1105770611650394e-03  2.1381936820630393e-03  2.1661716627824163e-03 
 2.1945157316685029e-03  2.2232306789363998e-03  2.2523213574805411e-03  2.2817926836948385e-03 
 2.3116496383035687e-03  2.3418972672031211e-03  2.3725406823147735e-03  2.4035850624486129e-03 
 2.4350356541787718e-03  2.4668977727301086e-03  2.4991768028764906e-03  2.5318781998508416e-03 
 2.5650074902670815e-03  2.5985702730541432e-03  2.6325722204021997e-03  2.6670190787212804e-03 
 2.7019166696124284e-03  2.7372708908515639e-03  2.7730877173862255e-03  2.8093732023453401e-03 
 2.8461334780622307e-03  2.8833747571109869e-03  2.9211033333564058e-03  2.9593255830176707e-03 
 2.9980479657459465e-03  3.0372770257160774e-03  3.0770193927325677e-03  3.1172817833500363e-03 
 3.1580710020083207e-03  3.1993939421824588e-03  3.2412575875476928e-03  3.2836690131597293e-03 
 3.3266353866504392e-03  3.3701639694392075e-03  3.4142621179601268e-03  3.4589372849052561e-03 
 3.5041970204841427e-03  3.5500489736998157e-03  3.5965008936415040e-03  3.6435606307942377e-03 
 3.6912361383656029e-03  3.7395354736298506e-03  3.7884667992895979e-03  3.8380383848553423e-03 
 3.8882586080430299e-03  3.9391359561899127e-03  3.9906790276889124e-03  4.0428965334417932e-03 
 4.0957972983313110e-03  4.1493902627126400e-03  4.2036844839243191e-03  4.2586891378189554e-03 
 4.3144135203139764e-03  4.3708670489626521e-03  4.4280592645456925e-03  4.4859998326836461e-03 
 4.5446985454704377e-03  4.6041653231282346e-03  4.6644102156840001e-03  4.7254434046679642e-03 
 4.7872752048343289e-03  4.8499160659044886e-03  4.9133765743330565e-03  4.9776674550970007e-03 
 5.0427995735081842e-03  5.1087839370496406e-03  5.1756316972358584e-03  5.2433541514974123e-03 
 5.3119627450902603e-03  5.3814690730300133e-03  5.4518848820515262e-03  5.5232220725941186e-03 
 5.5954927008127868e-03  5.6687089806157021e-03  5.7428832857284173e-03  5.8180281517850379e-03 
 5.8941562784467806e-03  5.9712805315482419e-03  6.0494139452717602e-03  6.1285697243502208e-03 
 6.2087612462986856e-03  6.2900020636752320e-03  6.3723059063713478e-03  6.4556866839323443e-03 
 6.5401584879080854e-03  6.6257355942344913e-03  6.7124324656462151e-03  6.8002637541208716e-03 
 6.8892443033552611e-03  6.9793891512739846e-03  7.0707135325709016e-03  7.1632328812837980e-03 
 7.2569628334028195e-03  7.3519192295129600e-03  7.4481181174711674e-03  7.5455757551184683e-03 
 7.6443086130275843e-03  7.7443333772864963e-03  7.8456669523184318e-03  7.9483264637387613e-03 
 8.0523292612492449e-03  8.1576929215701997e-03  8.2644352514110002e-03  8.3725742904794433e-03 
 8.4821283145305130e-03  8.5931158384550260e-03  8.7055556194086843e-03  8.8194666599820878e-03 
 8.9348682114122197e-03  9.0517797768359231e-03  9.1702211145860239e-03  9.2902122415305013e-03 
 9.4117734364554013e-03  9.5349252434919953e-03  9.6596884755887832e-03  9.7860842180289391e-03 
 9.9141338319937676e-03  1.0043858958172811e-02  1.0175281520421133e-02  1.0308423729464559e-02 
 1.0443308086653311e-02  1.0579957387764790e-02  1.0718394726856125e-02  1.0858643500167115e-02 
 1.1000727410074254e-02  1.1144670469096491e-02  1.1290497003953411e-02  1.1438231659676461e-02 
 1.1587899403774096e-02  1.1739525530451291e-02  1.1893135664884338e-02  1.2048755767551564e-02 
 1.2206412138620712e-02  1.2366131422393725e-02  1.2527940611809715e-02  1.2691867053006822e-02 
 1.2857938449943747e-02  1.3026182869081849e-02  1.3196628744128401e-02  1.3369304880841967e-02 
 1.3544240461900630e-02  1.3721465051833959e-02  1.3901008602019463e-02  1.4082901455744453e-02 
 1.4267174353334144e-02  1.4453858437346789e-02  1.4642985257836930e-02  1.4834586777687364e-02 
 1.5028695378010982e-02  1.5225343863623231e-02  1.5424565468586223e-02  1.5626393861825367e-02 
 1.5830863152819483e-02  1.6038007897365432e-02  1.6247863103418025e-02  1.6460464237006586e-02 
 1.6675847228228700e-02  1.6894048477322510e-02  1.7115104860818461e-02  1.7339053737771493e-02 
 1.7565932956074833e-02  1.7795780858856372e-02  1.8028636290958754e-02  1.8264538605504189e-02 
 1.8503527670545323e-02  1.8745643875802964e-02  1.8990928139492064e-02  1.9239421915236983e-02 
 1.9491167199077262e-02  1.9746206536565048e-02  2.0004583029955399e-02  2.0266340345490668e-02 
 2.0531522720780158e-02  2.0800174972276476e-02  2.1072342502849534e-02  2.1348071309459787e-02 
 2.1627407990931810e-02  2.1910399755829629e-02  2.2197094430435053e-02  2.2487540466830453e-02 
 2.2781786951087287e-02  2.3079883611561693e-02  2.3381880827298810e-02  2.3687829636546878e-02 
 2.3997781745382845e-02  2.4311789536450829e-02  2.4629906077814880e-02  2.4952185131927644e-02 
 2.5278681164716314e-02  2.5609449354787556e-02  2.5944545602752698e-02  2.6284026540675236e-02 
 2.6627949541641670e-02  2.6976372729457739e-02  2.7329354988471468e-02  2.7686955973524750e-02 
 2.8049236120035195e-02  2.8416256654209819e-02  2.8788079603392473e-02  2.9164767806546490e-02 
 2.9546384924874779e-02  2.9932995452578628e-02  3.0324664727757383e-02  3.0721458943450769e-02 
 3.1123445158825643e-02  3.1530691310509174e-02  3.1943266224070267e-02  3.2361239625651322e-02 
 3.2784682153751965e-02  3.3213665371167309e-02  3.3648261777082120e-02  3.4088544819323371e-02 
 3.4534588906773127e-02  3.4986469421943778e-02  3.5444262733717931e-02  3.5908046210254854e-02 
 3.6377898232065969e-02  3.6853898205261179e-02  3.7336126574968931e-02  3.7824664838931439e-02 
 3.8319595561278091e-02  3.8821002386478946e-02  3.9328970053480850e-02  3.9843584410028547e-02 
 4.0364932427173129e-02  4.0893102213970384e-02  4.1428183032371300e-02  4.1970265312307770e-02 
 4.2519440666975314e-02  4.3075801908315954e-02  4.3639443062703676e-02  4.4210459386835099e-02 
 4.4788947383828055e-02  4.5375004819530912e-02  4.5968730739045220e-02  4.6570225483464400e-02 
 4.7179590706831927e-02  4.7796929393320906e-02  4.8422345874638673e-02  4.9055945847659113e-02 
 4.9697836392285706e-02  5.0348125989548256e-02  5.1006924539936452e-02  5.1674343381973353e-02 
 5.2350495311031704e-02  5.3035494598396862e-02  5.3729457010578754e-02  5.4432499828876740e-02 
 5.5144741869200424e-02  5.5866303502149814e-02  5.6597306673358286e-02  5.7337874924101619e-02 
 5.8088133412176855e-02  5.8848208933054084e-02  5.9618229941305424e-02  6.0398326572314004e-02 
 6.1188630664267170e-02  6.1989275780437447e-02  6.2800397231755095e-02  6.3622132099675932e-02 
 6.4454619259348436e-02  6.5297999403084075e-02  6.6152415064134301e-02  6.7018010640779543e-02 
 6.7894932420732412e-02  6.8783328605860894e-02  6.9683349337234746e-02  7.0595146720499699e-02 
 7.1518874851583703e-02  7.2454689842739464e-02  7.3402749848927876e-02  7.4363215094546339e-02 
 7.5336247900507428e-02  7.6322012711671258e-02  7.7320676124637139e-02  7.8332406915898767e-02 
 7.9357376070367899e-02  8.0395756810271155e-02  8.1447724624425011e-02  8.2513457297893944e-02 
 8.3593134942036143e-02  8.4686940024943314e-02  8.5795057402277802e-02  8.6917674348513815e-02 
 8.8054980588587184e-02  8.9207168329959424e-02  9.0374432295101101e-02  9.1556969754400544e-02 
 9.2754980559502917e-02  9.3968667177085685e-02  9.5198234723075884e-02  9.6443890997315304e-02 
 9.7705846518679224e-02  9.8984314560654013e-02  1.0027951118738179e-01  1.0159165529017516e-01 
 1.0292096862451056e-01  1.0426767584750533e-01  1.0563200455588551e-01  1.0701418532445003e-01 
 1.0841445174503848e-01  1.0983304046600872e-01  1.1127019123223100e-01  1.1272614692560533e-01 
 1.1420115360610922e-01  1.1569546055338233e-01  1.1720932030885536e-01  1.1874298871843010e-01 
 1.2029672497571807e-01  1.2187079166584477e-01  1.2346545480982749e-01  1.2508098390953259e-01 
 1.2671765199322324e-01  1.2837573566170099e-01  1.3005551513505226e-01  1.3175727430000606e-01 
 1.3348130075791162e-01  1.3522788587334370e-01  1.3699732482334379e-01  1.3878991664730589e-01 
 1.4060596429751485e-01  1.4244577469034589e-01  1.4430965875813428e-01  1.4619793150172380e-01 
 1.4811091204370230e-01  1.5004892368233450e-01  1.5201229394619997e-01  1.5400135464954628e-01 
 1.5601644194836678e-01  1.5805789639721052e-01  1.6012606300673846e-01  1.6222129130203006e-01 
 1.6434393538165409e-01  1.6649435397751206e-01  1.6867291051546490e-01  1.7087997317675269e-01 
 1.7311591496021822e-01  1.7538111374534468e-01  1.7767595235611808e-01  1.8000081862572564e-01 
 1.8235610546210032e-01  1.8474221091432325e-01  1.8715953823989503e-01  1.8960849597288720e-01 
 1.9208949799298530e-01  1.9460296359543583e-01  1.9714931756190820e-01  1.9972899023228263e-01 
 2.0234241757738067e-01  2.0499004127264378e-01  2.0767230877277812e-01  2.1038967338737521e-01 
 2.1314259435752259e-01  2.1593153693341635e-01  2.1875697245298983e-01  2.2161937842157059e-01 
 2.2451923859258016e-01  2.2745704304928940e-01  2.3043328828764373e-01  2.3344847730017218e-01 
 2.3650311966099433e-01  2.3959773161193951e-01  2.4273283614979288e-01  2.4590896311468319e-01 
 2.4912664927962744e-01  2.5238643844124503e-01  2.5568888151166336e-01  2.5903453661162135e-01 
 2.6242396916479405e-01  2.6585775199334999e-01  2.6933646541475997e-01  2.7286069733987195e-01 
 2.7643104337226915e-01  2.8004810690892895e-01  2.8371249924219782e-01  2.8742483966310195e-01 
 2.9118575556600801e-01  2.9499588255465503e-01  2.9885586454957247e-01  3.0276635389690471e-01 
 3.0672801147865875e-01  3.1074150682439494e-01  3.1480751822437991e-01  3.1892673284421663e-01 
 3.2309984684098048e-01  3.2732756548086928e-01  3.3161060325839570e-01  3.3594968401713804e-01 
 3.4034554107207210e-01  3.4479891733350260e-01  3.4931056543261724e-01  3.5388124784868291e-01 
 3.5851173703790667e-01  3.6320281556398237e-01  3.6795527623034630e-01  3.7276992221416227e-01 
 3.7764756720206094e-01  3.8258903552765450e-01  3.8759516231085112e-01  3.9266679359899231e-01 
 3.9780478650983730e-01  4.0301000937641573e-01  4.0828334189378152e-01  4.1362567526768118e-01 
 4.1903791236517030e-01  4.2452096786719984e-01  4.3007576842319989e-01  4.3570325280768546e-01 
 4.4140437207891137e-01  4.4718008973960371e-01  4.5303138189979392e-01  4.5895923744178374e-01 
 4.6496465818726862e-01  4.7104865906664795e-01  4.7721226829055091e-01  4.8345652752360641e-01 
 4.8978249206048674e-01  4.9619123100425488e-01  5.0268382744704687e-01  5.0926137865311261e-01 
 5.1592499624426202e-01  5.2267580638772826e-01  5.2951494998649284e-01  5.3644358287210203e-01 
 5.4346287600000420e-01  5.5057401564744468e-01  5.5777820361394892e-01  5.6507665742442992e-01 
 5.7247061053495296e-01  5.7996131254119165e-01  5.8755002938961398e-01  5.9523804359142896e-01 
 6.0302665443933512e-01  6.1091717822710323e-01  6.1891094847203365e-01  6.2700931614032385e-01 
 6.3521364987538564e-01  6.4352533622914532e-01  6.5194577989638025e-01  6.6047640395211160e-01 
 6.6911865009210858e-01  6.7787397887653833e-01  6.8674386997680392e-01  6.9572982242561232e-01 
 7.0483335487031495e-01  7.1405600582956230e-01  7.2339933395331713e-01  7.3286491828627043e-01 
 7.4245435853470365e-01  7.5216927533684241e-01  7.6201131053674864e-01  7.7198212746179629e-01 
 7.8208341120377711e-01  7.9231686890368547e-01  8.0268423004023082e-01  8.1318724672211784e-01 
 8.2382769398416500e-01  8.3460737008728514e-01  8.4552809682239638e-01  8.5659171981830917e-01 
 8.6780010885364245e-01  8.7915515817282031e-01  8.9065878680620358e-01  9.0231293889441122e-01 
 9.1411958401688409e-01  9.2608071752474885e-01  9.3819836087803699e-01  9.5047456198731628e-01 
 9.6291139555979299e-01  9.7551096344994148e-01  9.8827539501472350e-01  1.0012068474734541e+00 
 1.0143075062723788e+00  1.0275795854540115e+00  1.0410253280313249e+00  1.0546470063668163e+00 
 1.0684469225565458e+00  1.0824274088191945e+00  1.0965908278902154e+00  1.1109395734211420e+00 
 1.1254760703841205e+00  1.1402027754817359e+00  1.1551221775622005e+00  1.1702367980399757e+00 
 1.1855491913218965e+00  1.2010619452388724e+00  1.2167776814832374e+00  1.2326990560518214e+00 
 1.2488287596948213e+00  1.2651695183705431e+00  1.2817240937060974e+00  1.2984952834641130e+00 
 1.3154859220155786e+00  1.3326988808188485e+00  1.3501370689049292e+00  1.3678034333691116e+00 
 1.3857009598690380e+00  1.4038326731292843e+00  1.4222016374525470e+00  1.4408109572375170e+00 
 1.4596637775035295e+00  1.4787632844220810e+00  1.4981127058552994e+00  1.5177153119014606e+00 
 1.5375744154476425e+00  1.5576933727296109e+00  1.5780755838990315e+00  1.5987244935981035e+00 
 1.6196435915417153e+00  1.6408364131072037e+00  1.6623065399318564e+00  1.6840576005182077e+00 
 1.7060932708472669e+00  1.7284172749997659e+00  1.7510333857855407e+00  1.7739454253811417e+00 
 1.7971572659757939e+00  1.8206728304258044e+00  1.8444960929175342e+00  1.8686310796390462e+00 
 1.8930818694605398e+00  1.9178525946236906e+00  1.9429474414400068e+00  1.9683706509983296e+00 
 1.9941265198815841e+00  2.0202194008929122e+00  2.0466537037913124e+00  2.0734338960368839e+00 
 2.1005645035458582e+00  2.1280501114554791e+00  2.1558953648989010e+00  2.1841049697902299e+00 
 2.2126836936198351e+00  2.2416363662600634e+00  2.2709678807815008e+00  2.3006831942799133e+00 
 2.3307873287140075e+00  2.3612853717541538e+00  2.3921824776422147e+00  2.4234838680626223e+00 
 2.4551948330248585e+00  2.4873207317574777e+00  2.5198669936138276e+00  2.5528391189896253e+00 
 2.5862426802525409e+00  2.6200833226839220e+00  2.6543667654328891e+00  2.6890988024828637e+00 
 2.7242853036307739e+00  2.7599322154790595e+00  2.7960455624406668e+00  2.8326314477571857e+00 
 2.8696960545303121e+00  2.9072456467668086e+00  2.9452865704371352e+00  2.9838252545479320e+00 
 3.0228682122285400e+00  3.0624220418317338e+00  3.1024934280488572e+00  3.1430891430395560e+00 
 3.1842160475762844e+00  3.2258810922037959e+00  3.2680913184138043e+00  3.3108538598349924e+00 
 3.3541759434386447e+00  3.3980648907600020e+00  3.4425281191356203e+00  3.4875731429569230e+00 
 3.5332075749401466e+00  3.5794391274129116e+00  3.6262756136176200e+00  3.6737249490319170e+00 
 3.7217951527064206e+00  3.7704943486199642e+00  3.8198307670525669e+00  3.8698127459763669e+00 
 3.9204487324647666e+00  3.9717472841199992e+00  4.0237170705193908e+00  4.0763668746805370e+00 
 4.1297055945456584e+00  4.1837422444853498e+00  4.2384859568220703e+00  4.2939459833735008e+00 
 4.3501316970161277e+00  4.4070525932692846e+00  4.4647182918999162e+00  4.5231385385483396e+00 
 4.5823232063752855e+00  4.6422822977304810e+00  4.7030259458430734e+00  4.7645644165341707e+00 
 4.8269081099517868e+00  4.8900675623284924e+00  4.9540534477620657e+00  5.0188765800194366e+00 
 5.0845479143642436e+00  5.1510785494082931e+00  5.2184797289872682e+00  5.2867628440609185e+00 
 5.3559394346382225e+00  5.4260211917276342e+00  5.4970199593129028e+00  5.5689477363547359e+00 
 5.6418166788186461e+00  5.7156391017293462e+00  5.7904274812520136e+00  5.8661944568007893e+00 
 5.9429528331748749e+00  6.0207155827225689e+00  6.0994958475336292e+00  6.1793069416603137e+00 
 6.2601623533674857e+00  6.3420757474121698e+00  6.4250609673529198e+00  6.5091320378894197e+00 
 6.5943031672326979e+00  6.6805887495063061e+00  6.7680033671790287e+00  6.8565617935293073e+00 
 6.9462789951419737e+00  7.0371701344376332e+00  7.1292505722351596e+00  7.2225358703476994e+00 
 7.3170417942126624e+00  7.4127843155561139e+00  7.5097796150920386e+00  7.6080440852569158e+00 
 7.7075943329800829e+00  7.8084471824903439e+00  7.9106196781593043e+00  8.0141290873819138e+00 
 8.1189929034946928e+00  8.2252288487321525e+00  8.3328548772219033e+00  8.4418891780188883e+00 
 8.5523501781794753e+00  8.6642565458755918e+00  8.7776271935497316e+00  8.8924812811111824e+00 
 9.0088382191741090e+00  9.1267176723379784e+00  9.2461395625109475e+00  9.3671240722766864e+00 
 9.4896916483052998e+00  9.6138630048088629e+00  9.7396591270421631e+00  9.8671012748492632e+00 
 9.9962109862564681e+00  1.0127010081112299e+01  1.0259520664775104e+01  1.0393765131848905e+01 
 1.0529766169968175e+01  1.0667546763632014e+01  1.0807130198088700e+01  1.0948540063270876e+01 
 1.1091800257782332e+01  1.1236934992936909e+01  1.1383968796850285e+01  1.1532926518585278e+01 
 1.1683833332351391e+01  1.1836714741759323e+01  1.1991596584131141e+01  1.2148505034866835e+01 
 1.2307466611868040e+01  1.2468508180019612e+01  1.2631656955729865e+01  1.2796940511530199e+01 
 1.2964386780734939e+01  1.3134024062162117e+01  1.3305881024916074e+01  1.3479986713232499e+01 
 1.3656370551387134e+01  1.3835062348668439e+01  1.4016092304415453e+01  1.4199491013121571e+01 
 1.4385289469605068e+01  1.4573519074247306e+01  1.4764211638299480e+01  1.4957399389258779e+01 
 1.5153114976314919e+01  1.5351391475867937e+01  1.5552262397118170e+01  1.5755761687729409e+01 
 1.5961923739566108e+01  1.6170783394505719e+01  1.6382375950327031e+01  1.6596737166675581e+01 
 1.6813903271107176e+01  1.7033910965210271e+01  1.7256797430808849e+01  1.7482600336246072e+01 
 1.7711357842750406e+01  1.7943108610884909e+01  1.8177891807080986e+01  1.8415747110257602e+01 
 1.8656714718527109e+01  1.8900835355988836e+01  1.9148150279611539e+01  1.9398701286205945e+01 
 1.9652530719488510e+01  1.9909681477237587e+01  2.0170197018543291e+01  2.0434121371152145e+01 
 2.0701499138907906e+01  2.0972375509289758e+01  2.1246796261048921e+01  2.1524807771945635e+01 
 2.1806457026586930e+01  2.2091791624367197e+01  2.2380859787512581e+01  2.2673710369230669e+01 
 2.2970392861966779e+01  2.3270957405768318e+01  2.3575454796758564e+01  2.3883936495721322e+01 
 2.4196454636797938e+01  2.4513062036298077e+01  2.4833812201625808e+01  2.5158759340322490e+01 
 2.5487958369227968e+01  2.5821464923761649e+01  2.6159335367325035e+01  2.6501626800827289e+01 
 2.6848397072335278e+01  2.7199704786850269e+01  2.7555609316212170e+01  2.7916170809133522e+01 
 2.8281450201364809e+01  2.8651509225992715e+01  2.9026410423873173e+01  2.9406217154200931e+01 
 2.9790993605217391e+01  3.0180804805058582e+01  3.0575716632745063e+01  3.0975795829315636e+01 
 3.1381110009106759e+01  3.1791727671179501e+01  3.2207718210896054e+01  3.2629151931647741e+01 
 3.3056100056736398e+01  3.3488634741411431e+01  3.3926829085063900e+01  3.4370757143580875e+01 
 3.4820493941860839e+01  3.5276115486493119e+01  3.5737698778603189e+01  3.6205321826866026e+01 
 3.6679063660689764e+01  3.7159004343571887e+01  3.7645224986630090e+01  3.8137807762310310e+01 
 3.8636835918274038e+01  3.9142393791467356e+01  3.9654566822374122e+01  4.0173441569455576e+01 
 4.0699105723778935e+01  4.1231648123837431e+01  4.1771158770564163e+01  4.2317728842542600e+01 
 4.2871450711415633e+01  4.3432417957497094e+01  4.4000725385586740e+01  4.4576469040992528e+01 
 4.5159746225762547e+01  4.5750655515129282e+01  4.6349296774169069e+01  4.6955771174679498e+01 
 4.7570181212277724e+01  4.8192630723722459e+01  4.8823224904462627e+01  4.9462070326415649e+01 
 5.0109274955978343e+01  5.0764948172273520e+01  5.1429200785635302e+01  5.2102145056336326e+01 
 5.2783894713560016e+01  5.3474564974621174e+01  5.4174272564437580e+01  5.4883135735257390e+01 