  <PP_INFO>

############################################################
#    Opium Parameter File                                  #
############################################################
#-----------------------------------------------------------
#Command line   : ../../opium-modified/opium Zr Zr.log ae ps nl tc2 ke upf qmcpack rpt 
 
#Opium version  : 4.1 
#Compile Host   : login26 
#Compile OS     : Linux 5.14.21-150400.24.81_12.0.86-cray_shasta_c x86_64 
#Compile Date   : Mon Nov 20 09:17:44 PST 2023 
#-----------------------------------------------------------
#Execution Host : login22 
#Execution Date : Thu Dec 21 13:38:40 2023
 
#-----------------------------------------------------------
############################################################
[Atom]
Zr
10            
100   2.00 -
200   2.00 -
210   6.00 -
300   2.00 -
310   6.00 -
320  10.00 -
400   2.00 -
410   6.00 -
420   2.00 -
500   2.00 -

[Pseudo]
4 1.176092 1.288137 1.877981 1.8
g

[Gaussinfo]
12 4
2 2 2 4
2  8.76509116700506   150.26231364732385
2  3.92832199983719   30.21371302162681
2  7.41790671408941   99.30190953603842
2  3.76873307676204   25.35602553401884
2  2.25055569071831   5.62570696446559
2  5.35535567613690   46.91683292558112
1  23.99901156399985   12.0
3  25.97176391420234   287.988138767998200
2  4.92661418289814   -5.98717813175362
2  4.80138762543713   -7.92258037931769

[KBdesign]
s

[Relativity]
nrl

[XC]
pbe

[Configs]
9
400   2.00 -
410   6.00 -
420   3.00 -
500   1.00 -

400   2.00 -
410   6.00 -
420   2.00 -
500   1.00 -

400   2.00 -
410   6.00 -
420   3.00 -
500   0.00 -

400   2.00 -
410   6.00 -
420   2.00 -
500   0.00 -

400   2.00 -
410   6.00 -
420   1.00 -
500   0.00 -

400   2.00 -
410   6.00 -
420   0.00 -
500   0.00 -

400   2.00 -
410   6.00 -
420   0.00 -
500   0.00 -

400   2.00 -
410   5.00 -
420   0.00 -
500   0.00 -

400   2.00 -
410   4.00 -
420   0.00 -
500   0.00 -
############################################################
  </PP_INFO>



<PP_HEADER>
   0         Version Number
   Zr        Element
   NC        Norm - Conserving pseudopotential
    F      Nonlinear Core Correction
SLA  PW   PBE  PBE     PBE  Exchange-Correlation functional
 12          Z valence
 0          Total energy
 0.000000   0.000000     Suggested cutoff for wfc and rho
 2           Max angular momentum component
 1171           Number of points in mesh
 3  2     Number of Wavefuncitons, Number of Projectors
 Wavefunctions         nl  l   occ
                       S  0  2.000000
                       P  1  6.000000
                       D  2  2.000000
</PP_HEADER>
<PP_MESH>
  <PP_R>
 2.9240177382128657e-05  2.9622781224751104e-05  3.0010391387905611e-05  3.0403073378632316e-05 
 3.0800893561122261e-05  3.1203919167933172e-05  3.1612218311351779e-05  3.2025859994905143e-05 
 3.2444914125022290e-05  3.2869451522848604e-05  3.3299543936214749e-05  3.3735264051762255e-05 
 3.4176685507227703e-05  3.4623882903887686e-05  3.5076931819166642e-05  3.5535908819409504e-05 
 3.6000891472821745e-05  3.6471958362578502e-05  3.6949189100105320e-05  3.7432664338532702e-05 
 3.7922465786326657e-05  3.8418676221097635e-05  3.8921379503590149e-05  3.9430660591855448e-05 
 3.9946605555609536e-05  4.0469301590779296e-05  4.0998837034238751e-05  4.1535301378738190e-05 
 4.2078785288028675e-05  4.2629380612184417e-05  4.3187180403125664e-05  4.3752278930344707e-05 
 4.4324771696837675e-05  4.4904755455244614e-05  4.5492328224201152e-05  4.6087589304903725e-05 
 4.6690639297891740e-05  4.7301580120049343e-05  4.7920515021829575e-05  4.8547548604703950e-05 
 4.9182786838840385e-05  4.9826337081012422e-05  5.0478308092742596e-05  5.1138810058683716e-05 
 5.1807954605240064e-05  5.2485854819432629e-05  5.3172625268011106e-05  5.3868382016815865e-05 
 5.4573242650393425e-05  5.5287326291868546e-05  5.6010753623076129e-05  5.6743646904957027e-05 
 5.7486129998220222e-05  5.8238328384275685e-05  5.9000369186440924e-05  5.9772381191425270e-05 
 6.0554494871095013e-05  6.1346842404523544e-05  6.2149557700329837e-05  6.2962776419309512e-05 
 6.3786635997361494e-05  6.4621275668715370e-05  6.5466836489462169e-05  6.6323461361393095e-05 
 6.7191295056150357e-05  6.8070484239693879e-05  6.8961177497088241e-05  6.9863525357613944e-05 
 7.0777680320206993e-05  7.1703796879231860e-05  7.2642031550591295e-05  7.3592542898177852e-05 
 7.4555491560671555e-05  7.5531040278688322e-05  7.6519353922283343e-05  7.7520599518814709e-05 
 7.8534946281171277e-05  7.9562565636370135e-05  8.0603631254528210e-05  8.1658319078212673e-05 
 8.2726807352176060e-05  8.3809276653479744e-05  8.4905909922012074e-05  8.6016892491405498e-05 
 8.7142412120358497e-05  8.8282659024367283e-05  8.9437825907872384e-05  9.0608107996826580e-05 
 9.1793703071688305e-05  9.2994811500847054e-05  9.4211636274486085e-05  9.5444383038888317e-05 
 9.6693260131190965e-05  9.7958478614595127e-05  9.9240252314035799e-05  1.0053879785231893e-04 
 1.0185433468673127e-04  1.0318708514612874e-04  1.0453727446851117e-04  1.0590513083908758e-04 
 1.0729088542884026e-04  1.0869477243359311e-04  1.1011702911359132e-04  1.1155789583359898e-04 
 1.1301761610352102e-04  1.1449643661955741e-04  1.1599460730589511e-04  1.1751238135694590e-04 
 1.1905001528013682e-04  1.2060776893926065e-04  1.2218590559839336e-04  1.2378469196638653e-04 
 1.2540439824194151e-04  1.2704529815927396e-04  1.2870766903437557e-04  1.3039179181188059e-04 
 1.3209795111254689e-04  1.3382643528135710e-04  1.3557753643624973e-04  1.3735155051748774e-04 
 1.3914877733767317e-04  1.4096952063241637e-04  1.4281408811166738e-04  1.4468279151172062e-04 
 1.4657594664789841e-04  1.4849387346792462e-04  1.5043689610599666e-04  1.5240534293756503e-04 
 1.5439954663482928e-04  1.5641984422296067e-04  1.5846657713706010e-04  1.6054009127986147e-04 
 1.6264073708019026e-04  1.6476886955218612e-04  1.6692484835530215e-04  1.6910903785508752e-04 
 1.7132180718476626e-04  1.7356353030762171e-04  1.7583458608019716e-04  1.7813535831632363e-04 
 1.8046623585198478e-04  1.8282761261103201e-04  1.8521988767175791e-04  1.8764346533434159e-04 
 1.9009875518917639e-04  1.9258617218609157e-04  1.9510613670447994e-04  1.9765907462434285e-04 
 2.0024541739826498e-04  2.0286560212433085e-04  2.0552007161999571e-04  2.0820927449692180e-04 
 2.1093366523679610e-04  2.1369370426813794e-04  2.1648985804411281e-04  2.1932259912136410e-04 
 2.2219240623987574e-04  2.2509976440388129e-04  2.2804516496383035e-04  2.3102910569942786e-04 
 2.3405209090376016e-04  2.3711463146852186e-04  2.4021724497035746e-04  2.4336045575833334e-04 
 2.4654479504255384e-04  2.4977080098393696e-04  2.5303901878516503e-04  2.5635000078282511e-04 
 2.5970430654075538e-04  2.6310250294461258e-04  2.6654516429767662e-04  2.7003287241791023e-04 
 2.7356621673628684e-04  2.7714579439640615e-04  2.8077221035541206e-04  2.8444607748623303e-04 
 2.8816801668115835e-04  2.9193865695677056e-04  2.9575863556025066e-04  2.9962859807707465e-04 
 3.0354919854011872e-04  3.0752109954019249e-04  3.1154497233801856e-04  3.1562149697767693e-04 
 3.1975136240153419e-04  3.2393526656667652e-04  3.2817391656286588e-04  3.3246802873204034e-04 
 3.3681832878937627e-04  3.4122555194593775e-04  3.4569044303292800e-04  3.5021375662756783e-04 
 3.5479625718062000e-04  3.5943871914558511e-04  3.6414192710958475e-04  3.6890667592595893e-04 
 3.7373377084859818e-04  3.7862402766803332e-04  3.8357827284930628e-04  3.8859734367164406e-04 
 3.9368208836996165e-04  3.9883336627821525e-04  4.0405204797463177e-04  4.0933901542883908e-04 
 4.1469516215092027e-04  4.2012139334241997e-04  4.2561862604932366e-04  4.3118778931704329e-04 
 4.3682982434742606e-04  4.4254568465782124e-04  4.4833633624222474e-04  4.5420275773453702e-04 
 4.6014594057395267e-04  4.6616688917251747e-04  4.7226662108487488e-04  4.7844616718023563e-04 
 4.8470657181659798e-04  4.9104889301724599e-04  4.9747420264955786e-04  5.0398358660615412e-04 
 5.1057814498841649e-04  5.1725899229240735e-04  5.2402725759722192e-04  5.3088408475580634e-04 
 5.3783063258826974e-04  5.4486807507772941e-04  5.5199760156871599e-04  5.5922041696817551e-04 
 5.6653774194910132e-04  5.7395081315683098e-04  5.8146088341804272e-04  5.8906922195248515e-04 
 5.9677711458747964e-04  6.0458586397522636e-04  6.1249678981295779e-04  6.2051122906596923e-04 
 6.2863053619356972e-04  6.3685608337798820e-04  6.4518926075627671e-04  6.5363147665524588e-04 
 6.6218415782947596e-04  6.7084874970244177e-04  6.7962671661079199e-04  6.8851954205182667e-04 
 6.9752872893421127e-04  7.0665579983197196e-04  7.1590229724181312e-04  7.2526978384380492e-04 
 7.3475984276547847e-04  7.4437407784937887e-04  7.5411411392411847e-04  7.6398159707897551e-04 
 7.7397819494208898e-04  7.8410559696229080e-04  7.9436551469462655e-04  8.0475968208961227e-04 
 8.1528985578627688e-04  8.2595781540903814e-04  8.3676536386846309e-04  8.4771432766596463e-04 
 8.5880655720248342e-04  8.7004392709121232e-04  8.8142833647440809e-04  8.9296170934435328e-04 
 9.0464599486851248e-04  9.1648316771894957e-04  9.2847522840604961e-04  9.4062420361661124e-04 
 9.5293214655636110e-04  9.6540113729694905e-04  9.7803328312748858e-04  9.9083071891069036e-04 
 1.0037956074436614e-03  1.0169301398234207e-03  1.0302365358172022e-03  1.0437170442375995e-03 
 1.0573739433226204e-03  1.0712095411207156e-03  1.0852261758808421e-03  1.0994262164476358e-03 
 1.1138120626617498e-03  1.1283861457654345e-03  1.1431509288134215e-03  1.1581089070891878e-03 
 1.1732626085266631e-03  1.1886145941374579e-03  1.2041674584436805e-03  1.2199238299164144e-03 
 1.2358863714199409e-03  1.2520577806617666e-03  1.2684407906485434e-03  1.2850381701479509e-03 
 1.3018527241566284e-03  1.3188872943742241e-03  1.3361447596836483e-03  1.3536280366376135e-03 
 1.3713400799515352e-03  1.3892838830028911e-03  1.4074624783371045e-03  1.4258789381800543e-03 
 1.4445363749572854e-03  1.4634379418200210e-03  1.4825868331780480e-03  1.5019862852395820e-03 
 1.5216395765581948e-03  1.5415500285868950e-03  1.5617210062394645e-03  1.5821559184591352e-03 
 1.6028582187947098e-03  1.6238314059842187e-03  1.6450790245462158e-03  1.6666046653788069e-03 
 1.6884119663665279e-03  1.7105046129951482e-03  1.7328863389745313e-03  1.7555609268696381e-03 
 1.7785322087397908e-03  1.8018040667862989e-03  1.8253804340085625e-03  1.8492652948687567e-03 
 1.8734626859652124e-03  1.8979766967146192e-03  1.9228114700431385e-03  1.9479712030865722e-03 
 1.9734601478996880e-03  1.9992826121748241e-03  2.0254429599699045e-03  2.0519456124459697e-03 
 2.0787950486143691e-03  2.1059958060937163e-03  2.1335524818767667e-03  2.1614697331073154e-03 
 2.1897522778672662e-03  2.2184048959739992e-03  2.2474324297881701e-03  2.2768397850320816e-03 
 2.3066319316187626e-03  2.3368139044918964e-03  2.3673908044767305e-03  2.3983677991421403e-03 
 2.4297501236739522e-03  2.4615430817597058e-03  2.4937520464849870e-03  2.5263824612414953e-03 
 2.5594398406469884e-03  2.5929297714772652e-03  2.6268579136103473e-03  2.6612300009830033e-03 
 2.6960518425598106e-03  2.7313293233148747e-03  2.7670684052264064e-03  2.8032751282843125e-03 
 2.8399556115109646e-03  2.8771160539953307e-03  2.9147627359406370e-03  2.9529020197257370e-03 
 2.9915403509803607e-03  3.0306842596744552e-03  3.0703403612217565e-03  3.1105153575978115e-03 
 3.1512160384726284e-03  3.1924492823581451e-03  3.2342220577707193e-03  3.2765414244088180e-03 
 3.3194145343461304e-03  3.3628486332402717e-03  3.4068510615573354e-03  3.4514292558124383e-03 
 3.4965907498265081e-03  3.5423431759995230e-03  3.5886942666004023e-03  3.6356518550737750e-03 
 3.6832238773638593e-03  3.7314183732556501e-03  3.7802434877336555e-03  3.8297074723584318e-03 
 3.8798186866611114e-03  3.9305855995561811e-03  3.9820167907727490e-03  4.0341209523045429e-03 
 4.0869068898788750e-03  4.1403835244448297e-03  4.1945598936809327e-03  4.2494451535225221e-03 
 4.3050485797091476e-03  4.3613795693521768e-03  4.4184476425229314e-03  4.4762624438616045e-03 
 4.5348337442072282e-03  4.5941714422489659e-03  4.6542855661990167e-03  4.7151862754874086e-03 
 4.7768838624789537e-03  4.8393887542127027e-03  4.9027115141641276e-03  4.9668628440303741e-03 
 5.0318535855388754e-03  5.0976947222796309e-03  5.1643973815614589e-03  5.2319728362925358e-03 
 5.3004325068855525e-03  5.3697879631877700e-03  5.4400509264363808e-03  5.5112332712394076e-03 
 5.5833470275825419e-03  5.6564043828622439e-03  5.7304176839454383e-03  5.8053994392561689e-03 
 5.8813623208895461e-03  5.9583191667533699e-03  6.0362829827377449e-03  6.1152669449131411e-03 
 6.1952844017571550e-03  6.2763488764104409e-03  6.3584740689621583e-03  6.4416738587653134e-03 
 6.5259623067824065e-03  6.6113536579617688e-03  6.6978623436449915e-03  6.7855029840058461e-03 
 6.8742903905211527e-03  6.9642395684739317e-03  7.0553657194893466e-03  7.1476842441038080e-03 
 7.2412107443677043e-03  7.3359610264821795e-03  7.4319511034704275e-03  7.5291971978839311e-03 
 7.6277157445440889e-03  7.7275233933197752e-03  7.8286370119411870e-03  7.9310736888505273e-03 
 8.0348507360900080e-03  8.1399856922276109e-03  8.2464963253211527e-03  8.3544006359211331e-03 
 8.4637168601128729e-03  8.5744634725984283e-03  8.6866591898189065e-03  8.8003229731175546e-03 
 8.9154740319442767e-03  9.0321318271020905e-03  9.1503160740360311e-03  9.2700467461651215e-03 
 9.3913440782579221e-03  9.5142285698522639e-03  9.6387209887196859e-03  9.7648423743752905e-03 
 9.8926140416334355e-03  1.0022057584209992e-02  1.0153194878371749e-02  1.0286048086633536e-02 
 1.0420639661503753e-02  1.0556992349278895e-02  1.0695129193887739e-02  1.0835073540785781e-02 
 1.0976849040900740e-02  1.1120479654629572e-02  1.1265989655887857e-02  1.1413403636212131e-02 
 1.1562746508915927e-02  1.1714043513300187e-02  1.1867320218918754e-02  1.2022602529899696e-02 
 1.2179916689323137e-02  1.2339289283656456e-02  1.2500747247247413e-02  1.2664317866876143e-02 
 1.2830028786366679e-02  1.2997908011258819e-02  1.3167983913541140e-02  1.3340285236445926e-02 
 1.3514841099306851e-02  1.3691681002480176e-02  1.3870834832330448e-02  1.4052332866281311e-02 
 1.4236205777932488e-02  1.4422484642243679e-02  1.4611200940786323e-02  1.4802386567064030e-02 
 1.4996073831902681e-02  1.5192295468911047e-02  1.5391084640012775e-02  1.5592474941050935e-02 
 1.5796500407465733e-02  1.6003195520046594e-02  1.6212595210759493e-02  1.6424734868650558e-02 
 1.6639650345826880e-02  1.6857377963515628e-02  1.7077954518202411e-02  1.7301417287849941e-02 
 1.7527804038198164e-02  1.7757153029146714e-02  1.7989503021220928e-02  1.8224893282122491e-02 
 1.8463363593365738e-02  1.8704954257000854e-02  1.8949706102425006e-02  1.9197660493282621e-02 
 1.9448859334455872e-02  1.9703345079146808e-02  1.9961160736051992e-02  2.0222349876631060e-02 
 2.0486956642470432e-02  2.0755025752743315e-02  2.1026602511767380e-02  2.1301732816661288e-02 
 2.1580463165101409e-02  2.1862840663180005e-02  2.2148913033366358e-02  2.2438728622571902e-02 
 2.2732336410321005e-02  2.3029786017028615e-02  2.3331127712386220e-02  2.3636412423857559e-02 
 2.3945691745285477e-02  2.4259017945611434e-02  2.4576443977708987e-02  2.4898023487333089e-02 
 2.5223810822186249e-02  2.5553861041103475e-02  2.5888229923357303e-02  2.6226973978084676e-02 
 2.6570150453837076e-02  2.6917817348255706e-02  2.7270033417873225e-02  2.7626858188043658e-02 
 2.7988351963002461e-02  2.8354575836058001e-02  2.8725591699916463e-02  2.9101462257141903e-02 
 2.9482251030753099e-02  2.9868022374959093e-02  3.0258841486035241e-02  3.0654774413341530e-02 
 3.1055888070484972e-02  3.1462250246628340e-02  3.1873929617946592e-02  3.2290995759233318e-02 
 3.2713519155659038e-02  3.3141571214683412e-02  3.3575224278123213e-02  3.4014551634378290e-02 
 3.4459627530817535e-02  3.4910527186326715e-02  3.5367326804020806e-02  3.5830103584122433e-02 
 3.6298935737008896e-02  3.6773902496429894e-02  3.7255084132898228e-02  3.7742561967255728e-02 
 3.8236418384416646e-02  3.8736736847290940e-02  3.9243601910889561e-02  3.9757099236614704e-02 
 4.0277315606736572e-02  4.0804338939059888e-02  4.1338258301782178e-02  4.1879163928546528e-02 
 4.2427147233691252e-02  4.2982300827699195e-02  4.3544718532849094e-02  4.4114495399071640e-02 
 4.4691727720013397e-02  4.5276513049310477e-02  4.5868950217075363e-02  4.6469139346599478e-02 
 4.7077181871274222e-02  4.7693180551733452e-02  4.8317239493220310e-02  4.8949464163181265e-02 
 4.9589961409090222e-02  5.0238839476506217e-02  5.0896208027367038e-02  5.1562178158522390e-02 
 5.2236862420509497e-02  5.2920374836574455e-02  5.3612830921942412e-02  5.4314347703339892e-02 
 5.5025043738772692e-02  5.5745039137562236e-02  5.6474455580644602e-02  5.7213416341134762e-02 
 5.7962046305160039e-02  5.8720471992966171e-02  5.9488821580299514e-02  6.0267224920069085e-02 
 6.1055813564291961e-02  6.1854720786326013e-02  6.2664081603393110e-02  6.3484032799397766e-02 
 6.4314712948043654e-02  6.5156262436252985e-02  6.6008823487892276e-02  6.6872540187808388e-02 
 6.7747558506179362e-02  6.8634026323183633e-02  6.9532093453992180e-02  7.0441911674087518e-02 
 7.1363634744914334e-02  7.2297418439865410e-02  7.3243420570607662e-02  7.4201801013752774e-02 
 7.5172721737876674e-02  7.6156346830892632e-02  7.7152842527782470e-02  7.8162377238690808e-02 
 7.9185121577386428e-02  8.0221248390096894e-02  8.1270932784719613e-02  8.2334352160415611e-02 
 8.3411686237590460e-02  8.4503117088267340e-02  8.5608829166857733e-02  8.6729009341334623e-02 
 8.7863846924813624e-02  8.9013533707547388e-02  9.0178263989338536e-02  9.1358234612376882e-02 
 9.2553644994506301e-02  9.3764697162926278e-02  9.4991595788335839e-02  9.6234548219522792e-02 
 9.7493764518406412e-02  9.8769457495538213e-02  1.0006184274606762e-01  1.0137113868617800e-01 
 1.0269756658999944e-01  1.0404135062700474e-01  1.0540271789989449e-01  1.0678189848297799e-01 
 1.0817912546105635e-01  1.0959463496881441e-01  1.1102866623072805e-01  1.1248146160149361e-01 
 1.1395326660698661e-01  1.1544432998575600e-01  1.1695490373106185e-01  1.1848524313346202e-01 
 1.2003560682395811e-01  1.2160625681770380e-01  1.2319745855828632e-01  1.2480948096258708e-01 
 1.2644259646622916e-01  1.2809708106961962e-01  1.2977321438459427e-01  1.3147127968167277e-01 
 1.3319156393793180e-01  1.3493435788550517e-01  1.3669995606071803e-01  1.3848865685386424e-01 
 1.4030076255963517e-01  1.4213657942820807e-01  1.4399641771700314e-01  1.4588059174311779e-01 
 1.4778941993644718e-01  1.4972322489349871e-01  1.5168233343191301e-01  1.5366707664569593e-01 
 1.5567778996117448e-01  1.5771481319368466e-01  1.5977849060500110e-01  1.6186917096151804e-01 
 1.6398720759319174e-01  1.6613295845325413e-01  1.6830678617870762e-01  1.7050905815161174e-01 
 1.7274014656117156e-01  1.7500042846663849e-01  1.7729028586103418e-01  1.7961010573570846e-01 
 1.8196028014574148e-01  1.8434120627620221e-01  1.8675328650927384e-01  1.8919692849225611e-01 
 1.9167254520646054e-01  1.9418055503700410e-01  1.9672138184351740e-01  1.9929545503177817e-01 
 2.0190320962628178e-01  2.0454508634376140e-01  2.0722153166767021e-01  2.0993299792363812e-01 
 2.1267994335591603e-01  2.1546283220481990e-01  2.1828213478518874e-01  2.2113832756586893e-01 
 2.2403189325023831e-01  2.2696332085778459e-01  2.2993310580675047e-01  2.3294174999786077e-01 
 2.3598976189914497e-01  2.3907765663186820e-01  2.4220595605759015e-01  2.4537518886635948e-01 
 2.4858589066606390e-01  2.5183860407294933e-01  2.5513387880332339e-01  2.5847227176645843e-01 
 2.6185434715871103e-01  2.6528067655887216e-01  2.6875183902476546e-01  2.7226842119110928e-01 
 2.7583101736865956e-01  2.7944022964464965e-01  2.8309666798454447e-01  2.8680095033512615e-01 
 2.9055370272892844e-01  2.9435555939003788e-01  2.9820716284127946e-01  3.0210916401280252e-01 
 3.0606222235209291e-01  3.1006700593541842e-01  3.1412419158073651e-01  3.1823446496207769e-01 
 3.2239852072542624e-01  3.2661706260611711e-01  3.3089080354776856e-01  3.3522046582277182e-01 
 3.3960678115435616e-01  3.4405049084025263e-01  3.4855234587797457e-01  3.5311310709173810e-01 
 3.5773354526104356e-01  3.6241444125093858e-01  3.6715658614398639e-01  3.7196078137396077e-01 
 3.7682783886129068e-01  3.8175858115027417e-01  3.8675384154809439e-01  3.9181446426564781e-01 
 3.9694130456021848e-01  4.0213522888001851e-01  4.0739711501061998e-01  4.1272785222330277e-01 
 4.1812834142534366e-01  4.2359949531227120e-01  4.2914223852211431e-01  4.3475750779166777e-01 
 4.4044625211480282e-01  4.4620943290285009e-01  4.5204802414707945e-01  4.5796301258330779e-01 
 4.6395539785865891e-01  4.7002619270050694e-01  4.7617642308762997e-01  4.8240712842359990e-01 
 4.8871936171244912e-01  4.9511418973662702e-01  5.0159269323729005e-01  5.0815596709694943e-01 
 5.1480512052450855e-01  5.2154127724272226e-01  5.2836557567810860e-01  5.3527916915334584e-01 
 5.4228322608218626e-01  5.4937893016692096e-01  5.5656748059842898e-01  5.6385009225884253e-01 
 5.7122799592686557e-01  5.7870243848577807e-01  5.8627468313416253e-01  5.9394600959938715e-01 
 6.0171771435388410e-01  6.0959111083425221e-01  6.1756752966323702e-01  6.2564831887460537e-01 
 6.3383484414096714e-01  6.4212848900457697e-01  6.5053065511115649e-01  6.5904276244677562e-01 
 6.6766624957783383e-01  6.7640257389418090e-01  6.8525321185541976e-01  6.9421965924043105e-01 
 7.0330343140016394e-01  7.1250606351373358e-01  7.2182911084787049e-01  7.3127414901976384e-01 
 7.4084277426334466e-01  7.5053660369905351e-01  7.6035727560713862e-01  7.7030644970452378e-01 
 7.8038580742531283e-01  7.9059705220495058e-01  8.0094190976810842e-01  8.1142212842033623e-01 
 8.2203947934353017e-01  8.3279575689526697e-01  8.4369277891205319e-01  8.5473238701654619e-01 
 8.6591644692879066e-01  8.7724684878153103e-01  8.8872550743964784e-01  9.0035436282377468e-01 
 9.1213538023814900e-01  9.2407055070275423e-01  9.3616189128980554e-01  9.4841144546464062e-01 
 9.6082128343107198e-01  9.7339350248124901e-01  9.8613022735011613e-01  9.9903361057449069e-01 
 1.0121058328568491e+00  1.0253491034338700e+00  1.0387656604498015e+00  1.0523577713347114e+00 
 1.0661277331876904e+00  1.0800778731650653e+00  1.0942105488736948e+00  1.1085281487694110e+00 
 1.1230330925606735e+00  1.1377278316175059e+00  1.1526148493857842e+00  1.1676966618069433e+00 
 1.1829758177431793e+00  1.1984548994082105e+00  1.2141365228036822e+00  1.2300233381612682e+00 
 1.2461180303905779e+00  1.2624233195329051e+00  1.2789419612209232e+00  1.2956767471443928e+00 
 1.3126305055219663e+00  1.3298061015791602e+00  1.3472064380325883e+00  1.3648344555805254e+00 
 1.3826931333998940e+00  1.4007854896497502e+00  1.4191145819813624e+00  1.4376835080549593e+00 
 1.4564954060632436e+00  1.4755534552617522e+00  1.4948608765061604e+00  1.5144209327966114e+00 
 1.5342369298291760e+00  1.5543122165545113e+00  1.5746501857438582e+00  1.5952542745624152e+00 
 1.6161279651502327e+00  1.6372747852107019e+00  1.6586983086067435e+00  1.6804021559648024e+00 
 1.7023899952867390e+00  1.7246655425697319e+00  1.7472325624342901e+00  1.7700948687604821e+00 
 1.7932563253324916e+00  1.8167208464916058e+00  1.8404923977977485e+00  1.8645749966996690e+00 
 1.8889727132139005e+00  1.9136896706126030e+00  1.9387300461204091e+00  1.9640980716203711e+00 
 1.9897980343691806e+00  2.0158342777217100e+00  2.0422112018650553e+00  2.0689332645621752e+00 
 2.0960049819052684e+00  2.1234309290789977e+00  2.1512157411337123e+00  2.1793641137687803e+00 
 2.2078808041261726e+00  2.2367706315944327e+00  2.2660384786231615e+00  2.2956892915481695e+00 
 2.3257280814274113e+00  2.3561599248878720e+00  2.3869899649835276e+00  2.4182234120645321e+00 
 2.4498655446577859e+00  2.4819217103589994e+00  2.5143973267364776e+00  2.5472978822466827e+00 
 2.5806289371618032e+00  2.6143961245094500e+00  2.6486051510246553e+00  2.6832617981143199e+00 
 2.7183719228342884e+00  2.7539414588792042e+00  2.7899764175853177e+00  2.8264828889464169e+00 
 2.8634670426430509e+00  2.9009351290852199e+00  2.9388934804687104e+00  2.9773485118452507e+00 
 3.0163067222066706e+00  3.0557746955832457e+00  3.0957591021564186e+00  3.1362666993860571e+00 
 3.1773043331525099e+00  3.2188789389135573e+00  3.2609975428765239e+00  3.3036672631857265e+00 
 3.3468953111254551e+00  3.3906889923386982e+00  3.4350557080618151e+00  3.4800029563753592e+00 
 3.5255383334712738e+00  3.5716695349366674e+00  3.6184043570543851e+00  3.6657506981205970e+00 
 3.7137165597796318e+00  3.7623100483762748e+00  3.8115393763257552e+00  3.8614128635016671e+00 
 3.9119389386420536e+00  3.9631261407738578e+00  4.0149831206560753e+00  4.0675186422417324e+00 
 4.1207415841590160e+00  4.1746609412117861e+00  4.2292858258997175e+00  4.2846254699583364e+00 
 4.3406892259192009e+00  4.3974865686905051e+00  4.4550270971583625e+00  4.5133205358090347e+00 
 4.5723767363723988e+00  4.6322056794869084e+00  4.6928174763863488e+00  4.7542223706086579e+00 
 4.8164307397271093e+00  4.8794530971041450e+00  4.9433000936681717e+00  5.0079825197135515e+00 
 5.0735113067242450e+00  5.1398975292212237e+00  5.2071524066340933e+00  5.2752873051972111e+00 
 5.3443137398706018e+00  5.4142433762860129e+00  5.4850880327184406e+00  5.5568596820834371e+00 
 5.6295704539605698e+00  5.7032326366433441e+00  5.7778586792159556e+00  5.8534611936572185e+00 
 5.9300529569720126e+00  6.0076469133506354e+00  6.0862561763563949e+00  6.1658940311418364e+00 
 6.2465739366939763e+00  6.3283095281088579e+00  6.4111146188959776e+00  6.4950032033127645e+00 
 6.5799894587296475e+00  6.6660877480260670e+00  6.7533126220178357e+00  6.8416788219162639e+00 
 6.9312012818194519e+00  7.0218951312361977e+00  7.1137756976429127e+00  7.2068585090740047e+00 
 7.3011592967461478e+00  7.3966939977169091e+00  7.4934787575781296e+00  7.5915299331845869e+00 
 7.6908640954183269e+00  7.7914980319891942e+00  7.8934487502720003e+00  7.9967334801807599e+00 
 8.1013696770806689e+00  8.2073750247380488e+00  8.3147674383089551e+00  8.4235650673668871e+00 
 8.5337862989701030e+00  8.6454497607690843e+00  8.7585743241546403e+00  8.8731791074472319e+00 
 8.9892834791280087e+00  9.1069070611121212e+00  9.2260697320648823e+00  9.3467916307613006e+00 
 9.4690931594895851e+00  9.5929949874991820e+00  9.7185180544939236e+00  9.8456835741708844e+00 
 9.9745130378055791e+00  1.0105028217883952e+01  1.0237251171782090e+01  1.0371204245493910e+01 
 1.0506910077407685e+01  1.0644391602132007e+01  1.0783672054371769e+01  1.0924774972854902e+01 
 1.1067724204310471e+01  1.1212543907498823e+01  1.1359258557294478e+01  1.1507892948822454e+01 
 1.1658472201648676e+01  1.1811021764025272e+01  1.1965567417191361e+01  1.2122135279730163e+01 
 1.2280751811983093e+01  1.2441443820521625e+01  1.2604238462677690e+01  1.2769163251133232e+01 
 1.2936246058570058e+01  1.3105515122380300e+01  1.3276999049438619e+01  1.3450726820936833e+01 
 1.3626727797281816e+01  1.3805031723057473e+01  1.3985668732051636e+01  1.4168669352348761e+01 
 1.4354064511489236e+01  1.4541885541696214e+01  1.4732164185170836e+01  1.4924932599456724e+01 
 1.5120223362874707e+01  1.5318069480028608e+01  1.5518504387383123e+01  1.5721561958914645e+01 
 1.5927276511836093e+01  1.6135682812396468e+01  1.6346816081756629e+01  1.6560712001941607e+01 
 1.6777406721871010e+01  1.6996936863468260e+01  1.7219339527849790e+01  1.7444652301595223e+01 
 1.7672913263099584e+01  1.7904160989008652e+01  1.8138434560738499e+01  1.8375773571080337e+01 
 1.8616218130891809e+01  1.8859808875875803e+01  1.9106586973447985e+01  1.9356594129694209e+01 
 1.9609872596418917e+01  1.9866465178285846e+01  2.0126415240051983e+01  2.0389766713896503e+01 
 2.0656564106845288e+01  2.0926852508292750e+01  2.1200677597622050e+01  2.1478085651925010e+01 
 2.1759123553823066e+01  2.2043838799390539e+01  2.2332279506181578e+01  2.2624494421362144e+01 
 2.2920532929948408e+01  2.3220445063152919e+01  2.3524281506840008e+01  2.3832093610091817e+01 
 2.4143933393886421e+01  2.4459853559889492e+01  2.4779907499360998e+01  2.5104149302178520e+01 
 2.5432633765978370e+01  2.5765416405416794e+01  2.6102553461551924e+01  2.6444101911348657e+01 
 2.6790119477307929e+01  2.7140664637221938e+01  2.7495796634057047e+01  2.7855575485965964e+01 
 2.8220061996430978e+01  2.8589317764539867e+01  2.8963405195396309e+01  2.9342387510666470e+01 
 2.9726328759263659e+01  3.0115293828172703e+01  3.0509348453416017e+01  3.0908559231163160e+01 
 3.1312993628985730e+01  3.1722719997259617e+01  3.2137807580716114e+01  3.2558326530144853e+01 
 3.2984347914249156e+01  3.3415943731656895e+01  3.3853186923088472e+01  3.4296151383683906e+01 
 3.4744911975491341e+01  3.5199544540118886e+01  3.5660125911552036e+01  3.6126733929138780e+01 
 3.6599447450744677e+01  3.7078346366079970e+01  3.7563511610201189e+01  3.8055025177189314e+01 
 3.8552970134007033e+01  3.9057430634537198e+01  3.9568491933805056e+01  4.0086240402386643e+01 
 4.0610763541005291e+01  4.1142149995319912e+01  4.1680489570906047e+01  4.2225873248433253e+01 
 4.2778393199041112e+01  4.3338142799916326e+01  4.3905216650073690e+01  4.4479710586343586e+01 
 4.5061721699568594e+01  4.5651348351012075e+01  4.6248690188981506e+01  4.6853848165669227e+01 
 4.7466924554213641e+01  4.8088022965983598e+01  4.8717248368088939e+01  4.9354707101120262e+01 
 5.0000506897120644e+01  5.0654756897792780e+01  5.1317567672943767e+01  5.1989051239172262e+01 
 5.2669321078799143e+01  5.3358492159046435e+01  5.4056680951466966e+01  5.4764005451628428e+01 
 5.5480585199054850e+01  5.6206541297429069e+01  5.6941996435059551e+01  5.7687074905615020e+01 
 5.8441902629130368e+01  5.9206607173287409e+01  5.9981317774974194e+01  6.0766165362126301e+01 
 6.1561282575853944e+01  6.2366803792858718e+01  6.3182865148143506e+01  6.4009604558019788e+01 
 6.4847161743415299e+01  6.5695678253487969e+01  6.6555297489547556e+01  6.7426164729290917e+01 