  <PP_INFO>

############################################################
#    Opium Parameter File                                  #
############################################################
#-----------------------------------------------------------
#Command line   : opium Ni Ni.log ae ps nl tc2 ke upf rpt 
 
#Opium version  : 4.1 
#Compile Host   : andes-login5.olcf.ornl.gov 
#Compile OS     : Linux 4.18.0-348.12.2.el8_5.x86_64 x86_64 
#Compile Date   : Thu Jun 30 15:38:05 EDT 2022 
#-----------------------------------------------------------
#Execution Host : andes-login5.olcf.ornl.gov 
#Execution Date : Thu Jun 30 16:17:14 2022
 
#-----------------------------------------------------------
############################################################
[Atom]
Ni
8            
100   2.00  -
200   2.00  -
210   6.00  -
300   2.00  -
310   6.00  -
320   8.00  -
400   0.00  -
410   0.00  -

[Pseudo]
5 1.139 1.139 1.000  1.139 1.139
g

[Gaussinfo]
18 3
2 2 4
2 26.4320193944270  321.240002430625
2 11.7489696842121  60.3470084610628
2 29.4929998193907  236.539998999428
2 11.5569831458722  44.3969887908906
1 28.2630001015327  18.000
3 26.9360254587070  508.7340018275886
2 27.0860075292970 -220.099999296390  
2 12.2130001295874 -2.13493270999809

[KBdesign]
s

[Relativity]
nrl

[XC]
pbe

[Configs]
14

300  2.00 -
310  6.00 -
320  8.00 -
400  2.00 -
410  0.00 -

300  2.00 -
310  6.00 -
320  9.00 -
400  1.00 -
410  0.00 -

300  2.00 -
310  6.00 -
320  10.00 -
400  0.00 -
410  0.00 -

300  2.00 -
310  6.00 -
320  8.00 -
400  1.00 -
410  0.00 -

300  2.00 -
310  6.00 -
320  9.00 -
400  0.00 -
410  0.00 -

300  2.00 -
310  6.00 -
320  8.00 -
400  0.00 -
410  0.00 -

300  2.00 -
310  6.00 -
320  7.00 -
400  0.00 -
410  0.00 -

300  2.00 -
310  6.00 -
320  6.00 -
400  0.00 -
410  0.00 -

300  2.00 -
310  6.00 -
320  5.00 -
400  0.00 -
410  0.00 -

300  2.00 -
310  6.00 -
320  4.00 -
400  0.00 -
410  0.00 -

300  2.00 -
310  6.00 -
320  3.00 -
400  0.00 -
410  0.00 -

300  2.00 -
310  6.00 -
320  2.00 -
400  0.00 -
410  0.00 -

300  2.00 -
310  6.00 -
320  1.00 -
400  0.00 -
410  0.00 -

300  2.00 -
310  6.00 -
320  0.00 -
400  0.00 -
410  0.00 -

############################################################
  </PP_INFO>



<PP_HEADER>
   0         Version Number
   Ni        Element
   NC        Norm - Conserving pseudopotential
    F      Nonlinear Core Correction
SLA  PW   PBE  PBE     PBE  Exchange-Correlation functional
 18          Z valence
 0          Total energy
 0.000000   0.000000     Suggested cutoff for wfc and rho
 2           Max angular momentum component
 1162           Number of points in mesh
 3  2     Number of Wavefuncitons, Number of Projectors
 Wavefunctions         nl  l   occ
                       S  0  2.000000
                       P  1  6.000000
                       D  2  8.000000
</PP_HEADER>
<PP_MESH>
  <PP_R>
 3.2931687800417464e-05  3.3362594567220568e-05  3.3799139691911738e-05  3.4241396951656061e-05 
 3.4689441088983046e-05  3.5143347824418328e-05  3.5603193869280484e-05  3.6069056938645588e-05 
 3.6541015764481159e-05  3.7019150108952089e-05  3.7503540777900585e-05  3.7994269634502608e-05 
 3.8491419613102892e-05  3.8995074733231100e-05  3.9505320113801307e-05  4.0022241987497190e-05 
 4.0545927715345766e-05  4.1076465801481484e-05  4.1613945908103597e-05  4.2158458870629399e-05 
 4.2710096713045554e-05  4.3268952663460373e-05  4.3835121169859610e-05  4.4408697916068415e-05 
 4.4989779837922000e-05  4.5578465139648223e-05  4.6174853310464194e-05  4.6779045141390260e-05 
 4.7391142742283882e-05  4.8011249559096443e-05  4.8639470391355905e-05  4.9275911409878156e-05 
 4.9920680174710164e-05  5.0573885653307689e-05  5.1235638238951374e-05  5.1906049769403213e-05 
 5.2585233545807502e-05  5.3273304351838975e-05  5.3970378473101526e-05  5.4676573716780758e-05 
 5.5392009431553704e-05  5.6116806527758868e-05  5.6851087497830665e-05  5.7594976437000684e-05 
 5.8348599064270159e-05  5.9112082743656815e-05  5.9885556505719619e-05  6.0669151069365315e-05 
 6.1462998863940171e-05  6.2267234051610929e-05  6.3081992550038498e-05  6.3907412055348213e-05 
 6.4743632065401103e-05  6.5590793903369166e-05  6.6449040741619321e-05  6.7318517625909957e-05 
 6.8199371499903962e-05  6.9091751230002541e-05  6.9995807630504110e-05  7.0911693489091970e-05 
 7.1839563592656174e-05  7.2779574753452651e-05  7.3731885835604891e-05  7.4696657781952351e-05 
 7.5674053641250249e-05  7.6664238595725083e-05  7.7667379988990902e-05  7.8683647354330736e-05 
 7.9713212443348219e-05  8.0756249254993704e-05  8.1812934064970982e-05  8.2883445455527932e-05 
 8.3967964345637487e-05  8.5066674021573325e-05  8.6179760167885727e-05  8.7307410898782674e-05 
 8.8449816789921675e-05  8.9607170910617199e-05  9.0779668856470365e-05  9.1967508782424674e-05 
 9.3170891436254773e-05  9.4390020192493344e-05  9.5625101086801819e-05  9.6876342850790942e-05 
 9.8143956947296942e-05  9.9428157606119125e-05  1.0072916186022538e-04  1.0204718958243125e-04 
 1.0338246352255865e-04  1.0473520934508164e-04  1.0610565566726386e-04  1.0749403409779559e-04 
 1.0890057927593603e-04  1.1032552891116802e-04  1.1176912382337154e-04  1.1323160798352244e-04 
 1.1471322855492471e-04  1.1621423593498137e-04  1.1773488379751215e-04  1.1927542913562513e-04 
 1.2083613230514909e-04  1.2241725706863430e-04  1.2401907063992903e-04  1.2564184372933931e-04 
 1.2728585058937957e-04  1.2895136906112219e-04  1.3063868062115276e-04  1.3234807042914099e-04 
 1.3407982737603298e-04  1.3583424413287447e-04  1.3761161720027303e-04  1.3941224695850744e-04 
 1.4123643771829256e-04  1.4308449777220835e-04  1.4495673944680260e-04  1.4685347915537441e-04 
 1.4877503745144898e-04  1.5072173908295183e-04  1.5269391304709198e-04  1.5469189264596340e-04 
 1.5671601554287365e-04  1.5876662381940991e-04  1.6084406403325162e-04  1.6294868727673948e-04 
 1.6508084923621064e-04  1.6724091025211108e-04  1.6942923537989368e-04  1.7164619445171348e-04 
 1.7389216213893011e-04  1.7616751801542843e-04  1.7847264662176725e-04  1.8080793753016714e-04 
 1.8317378541035003e-04  1.8557059009623858e-04  1.8799875665352937e-04  1.9045869544814979e-04 
 1.9295082221561111e-04  1.9547555813126849e-04  1.9803332988150080e-04  2.0062456973582153e-04 
 2.0324971561993353e-04  2.0590921118973947e-04  2.0860350590632009e-04  2.1133305511189545e-04 
 2.1409832010677783e-04  2.1689976822733293e-04  2.1973787292496090e-04  2.2261311384611063e-04 
 2.2552597691334126e-04  2.2847695440744367e-04  2.3146654505063819e-04  2.3449525409085909e-04 
 2.3756359338714269e-04  2.4067208149613307e-04  2.4382124375971914e-04  2.4701161239381876e-04 
 2.5024372657832440e-04  2.5351813254822608e-04  2.5683538368592615e-04  2.6019604061476212e-04 
 2.6360067129375405e-04  2.6704985111358943e-04  2.7054416299386754e-04  2.7408419748161284e-04 
 2.7767055285107968e-04  2.8130383520486095e-04  2.8498465857632212e-04  2.8871364503337379e-04 
 2.9249142478360247e-04  2.9631863628077747e-04  3.0019592633275091e-04  3.0412395021076993e-04 
 3.0810337176021907e-04  3.1213486351281148e-04  3.1621910680024873e-04  3.2035679186936727e-04 
 3.2454861799879192e-04  3.2879529361711548e-04  3.3309753642262515e-04  3.3745607350459437e-04 
 3.4187164146616398e-04  3.4634498654882891e-04  3.5087686475855553e-04  3.5546804199354688e-04 
 3.6011929417368346e-04  3.6483140737165418e-04  3.6960517794580475e-04  3.7444141267472424e-04 
 3.7934092889359251e-04  3.8430455463231195e-04  3.8933312875544625e-04  3.9442750110399064e-04 
 3.9958853263899734e-04  4.0481709558707940e-04  4.1011407358781943e-04  4.1548036184310699e-04 
 4.2091686726842989e-04  4.2642450864614371e-04  4.3200421678075024e-04  4.3765693465620456e-04 
 4.4338361759528204e-04  4.4918523342102855e-04  4.5506276262032757e-04  4.6101719850960289e-04 
 4.6704954740269179e-04  4.7316082878091486e-04  4.7935207546537039e-04  4.8562433379148402e-04 
 4.9197866378584119e-04  4.9841613934533508e-04  5.0493784841865684e-04  5.1154489319016230e-04 
 5.1823839026614326e-04  5.2501947086353669e-04  5.3188928100110380e-04  5.3884898169310742e-04 
 5.4589974914552987e-04  5.5304277495485225e-04  5.6027926630943762e-04  5.6761044619354779e-04 
 5.7503755359403241e-04  5.8256184370971949e-04  5.9018458816354695e-04  5.9790707521747044e-04 
 6.0573060999018235e-04  6.1365651467768022e-04  6.2168612877672028e-04  6.2982080931119685e-04 
 6.3806193106148159e-04  6.4641088679676464e-04  6.5486908751043714e-04  6.6343796265855032e-04 
 6.7211896040139977e-04  6.8091354784826491e-04  6.8982321130535635e-04  6.9884945652700444e-04 
 7.0799380897013531e-04  7.1725781405207554e-04  7.2664303741173356e-04  7.3615106517419481e-04 
 7.4578350421878128e-04  7.5554198245061791e-04  7.6542814907575149e-04  7.7544367487987194e-04 
 7.8559025251067791e-04  7.9586959676393942e-04  8.0628344487330029e-04  8.1683355680387730e-04 
 8.2752171554969708e-04  8.3834972743502656e-04  8.4931942241964632e-04  8.6043265440811695e-04 
 8.7169130156309563e-04  8.8309726662274808e-04  8.9465247722231712e-04  9.0635888621989566e-04 
 9.1821847202646733e-04  9.3023323894026008e-04  9.4240521748547895e-04  9.5473646475546889e-04 
 9.6722906476036721e-04  9.7988512877930883e-04  9.9270679571723548e-04  1.0056962324663770e-03 
 1.0188556342724594e-03  1.0321872251057085e-03  1.0456932580367063e-03  1.0593760156171631e-03 
 1.0732378102656771e-03  1.0872809846585354e-03  1.1015079121256348e-03  1.1159209970515789e-03 
 1.1305226752820253e-03  1.1453154145353473e-03  1.1603017148196868e-03  1.1754841088554616e-03 
 1.1908651625033985e-03  1.2064474751981736e-03  1.2222336803877180e-03  1.2382264459782826e-03 
 1.2544284747853165e-03  1.2708425049902502e-03  1.2874713106032552e-03  1.3043177019320584e-03 
 1.3213845260568904e-03  1.3386746673116488e-03  1.3561910477713590e-03  1.3739366277460076e-03 
 1.3919144062808472e-03  1.4101274216632396e-03  1.4285787519361334e-03  1.4472715154182590e-03 
 1.4662088712311370e-03  1.4853940198329718e-03  1.5048302035595396e-03  1.5245207071721515e-03 
 1.5444688584127814e-03  1.5646780285664683e-03  1.5851516330310682e-03  1.6058931318944651e-03 
 1.6269060305193325e-03  1.6481938801355515e-03  1.6697602784403742e-03  1.6916088702064443e-03 
 1.7137433478977729e-03  1.7361674522937704e-03  1.7588849731214520e-03  1.7818997496959076e-03 
 1.8052156715691553e-03  1.8288366791874863e-03  1.8527667645574098e-03  1.8770099719203064e-03 
 1.9015703984359225e-03  1.9264521948747957e-03  1.9516595663197456e-03  1.9771967728765419e-03 
 2.0030681303938739e-03  2.0292780111927384e-03  2.0558308448053726e-03  2.0827311187238567e-03 
 2.1099833791585051e-03  2.1375922318061960e-03  2.1655623426287381e-03  2.1938984386414328e-03 
 2.2226053087119478e-03  2.2516878043696517e-03  2.2811508406255275e-03  2.3109993968028300e-03 
 2.3412385173785960e-03  2.3718733128361706e-03  2.4029089605289026e-03  2.4343507055551200e-03 
 2.4662038616445662e-03  2.4984738120564344e-03  2.5311660104891495e-03  2.5642859820020568e-03 
 2.5978393239491715e-03  2.6318317069251450e-03  2.6662688757236003e-03  2.7011566503080306e-03 
 2.7365009267953772e-03  2.7723076784524898e-03  2.8085829567056210e-03  2.8453328921631341e-03 
 2.8825636956515905e-03  2.9202816592653925e-03  2.9584931574301661e-03  2.9972046479800423e-03 
 3.0364226732490646e-03  3.0761538611768454e-03  3.1164049264287086e-03  3.1571826715304841e-03 
 3.1984939880181479e-03  3.2403458576025120e-03  3.2827453533491478e-03  3.3256996408737539e-03 
 3.3692159795531518e-03  3.4133017237521534e-03  3.4579643240664581e-03  3.5032113285818197e-03 
 3.5490503841496932e-03  3.5954892376795712e-03  3.6425357374482293e-03  3.6901978344261038e-03 
 3.7384835836210273e-03  3.7874011454395321e-03  3.8369587870659971e-03  3.8871648838598098e-03 
 3.9380279207708226e-03  3.9895564937733339e-03  4.0417593113188230e-03  4.0946451958077026e-03 
 4.1482230850803260e-03  4.2025020339275035e-03  4.2574912156207725e-03  4.3131999234627223e-03 
 4.3696375723575711e-03  4.4268137004023081e-03  4.4847379704986571e-03  4.5434201719861322e-03 
 4.6028702222964514e-03  4.6630981686296147e-03  4.7241141896519068e-03  4.7859285972160935e-03 
 4.8485518381041828e-03  4.9119944957929347e-03  4.9762672922424979e-03  5.0413810897084466e-03 
 5.1073468925775314e-03  5.1741758492274414e-03  5.2418792539109102e-03  5.3104685486644737e-03 
 5.3799553252421861e-03  5.4503513270746781e-03  5.5216684512538099e-03  5.5939187505433087e-03 
 5.6671144354157165e-03  5.7412678761159892e-03  5.8163916047521006e-03  5.8924983174129886e-03 
 5.9696008763142410e-03  6.0477123119718123e-03  6.1268458254042481e-03  6.2070147903636620e-03 
 6.2882327555959438e-03  6.3705134471305231e-03  6.4538707706001059e-03  6.5383188135907577e-03 
 6.6238718480227370e-03  6.7105443325624929e-03  6.7983509150661920e-03  6.8873064350552697e-03 
 6.9774259262243270e-03  7.0687246189818651e-03  7.1612179430242603e-03  7.2549215299434174e-03 
 7.3498512158685497e-03  7.4460230441425208e-03  7.5434532680332140e-03  7.6421583534803470e-03 
 7.7421549818782942e-03  7.8434600528952559e-03  7.9460906873293526e-03  8.0500642300020703e-03 
 8.1553982526895909e-03  8.2621105570924534e-03  8.3702191778440866e-03  8.4797423855587136e-03 
 8.5906986899191001e-03  8.7031068428047760e-03  8.8169858414611241e-03  8.9323549317099574e-03 
 9.0492336112021187e-03  9.1676416327126226e-03  9.2875990074789312e-03  9.4091260085828882e-03 
 9.5322431743769340e-03  9.6569713119551009e-03  9.7833315006695138e-03  9.9113450956928167e-03 
 1.0041033731627250e-02  1.0172419326160961e-02  1.0305524083772137e-02  1.0440370499481613e-02 
 1.0576981362654591e-02  1.0715379760852111e-02  1.0855589083732842e-02  1.0997633027006079e-02 
 1.1141535596436308e-02  1.1287321111900268e-02  1.1435014211497055e-02  1.1584639855712026e-02 
 1.1736223331635176e-02  1.1889790257234717e-02  1.2045366585686595e-02  1.2202978609760580e-02 
 1.2362652966263885e-02  1.2524416640542798e-02  1.2688296971043286e-02  1.2854321653931255e-02 
 1.3022518747773265e-02  1.3192916678278505e-02  1.3365544243102793e-02  1.3540430616715464e-02 
 1.3717605355329883e-02  1.3897098401898580e-02  1.4078940091173638e-02  1.4263161154833342e-02 
 1.4449792726675919e-02  1.4638866347881207e-02  1.4830413972341205e-02  1.5024467972060349e-02 
 1.5221061142626471e-02  1.5420226708753282e-02  1.5621998329895503e-02  1.5826410105937345e-02 
 1.6033496582955477e-02  1.6243292759057400e-02  1.6455834090296214e-02  1.6671156496662766e-02 
 1.6889296368156215e-02  1.7110290570934061e-02  1.7334176453542523e-02  1.7560991853228652e-02 
 1.7790775102334837e-02  1.8023565034777082e-02  1.8259400992608033e-02  1.8498322832665871e-02 
 1.8740370933310234e-02  1.8985586201246220e-02  1.9234010078437763e-02  1.9485684549111353e-02 
 1.9740652146851556e-02  1.9998955961789241e-02  2.0260639647883914e-02  2.0525747430301364e-02 
 2.0794324112887796e-02  2.1066415085741814e-02  2.1342066332885427e-02  2.1621324440035498e-02 
 2.1904236602476760e-02  2.2190850633038044e-02  2.2481214970172681e-02  2.2775378686144744e-02 
 2.3073391495322369e-02  2.3375303762579607e-02  2.3681166511808210e-02  2.3991031434540771e-02 
 2.4304950898686766e-02  2.4622977957382757e-02  2.4945166357958615e-02  2.5271570551020871e-02 
 2.5602245699655034e-02  2.5937247688748267e-02  2.6276633134434051e-02  2.6620459393660482e-02 
 2.6968784573883714e-02  2.7321667542888273e-02  2.7679167938735764e-02  2.8041346179844003e-02 
 2.8408263475197752e-02  2.8779981834693220e-02  2.9156564079617895e-02  2.9538073853267465e-02 
 2.9924575631701717e-02  3.0316134734641110e-02  3.0712817336506017e-02  3.1114690477600241e-02 
 3.1521822075441151e-02  3.1934280936237805e-02  3.2352136766519352e-02  3.2775460184915658e-02 
 3.3204322734091983e-02  3.3638796892839870e-02  3.4078956088326236e-02  3.4524874708502774e-02 
 3.4976628114677562e-02  3.5434292654251485e-02  3.5897945673621021e-02  3.6367665531249982e-02 
 3.6843531610912292e-02  3.7325624335108006e-02  3.7814025178654960e-02  3.8308816682458134e-02 
 3.8810082467459379e-02  3.9317907248769331e-02  3.9832376849984759e-02  4.0353578217692740e-02 
 4.0881599436164928e-02  4.1416529742243982e-02  4.1958459540424833e-02  4.2507480418133216e-02 
 4.3063685161204165e-02  4.3627167769563137e-02  4.4198023473112011e-02  4.4776348747823401e-02 
 4.5362241332045229e-02  4.5955800243018693e-02  4.6557125793612472e-02  4.7166319609275829e-02 
 4.7783484645213571e-02  4.8408725203785655e-02  4.9042146952134678e-02  4.9683856940043632e-02 
 5.0333963618027833e-02  5.0992576855663177e-02  5.1659807960154402e-02  5.2335769695146230e-02 
 5.3020576299780735e-02  5.3714343508004005e-02  5.4417188568125448e-02  5.5129230262633146e-02 
 5.5850588928268066e-02  5.6581386476361677e-02  5.7321746413438963e-02  5.8071793862091423e-02 
 5.8831655582123062e-02  5.9601459991973117e-02  6.0381337190419042e-02  6.1171418978563583e-02 
 6.1971838882109449e-02  6.2782732173925312e-02  6.3604235896907543e-02  6.4436488887140583e-02 
 6.5279631797360627e-02  6.6133807120726265e-02  6.6999159214900156e-02  6.7875834326445852e-02 
 6.8763980615543771e-02  6.9663748181030702e-02  7.0575289085766629e-02  7.1498757382334063e-02 
 7.2434309139073089e-02  7.3382102466457266e-02  7.4342297543814759e-02  7.5315056646399037e-02 
 7.6300544172813692e-02  7.7298926672796212e-02  7.8310372875365422e-02  7.9335053717336762e-02 
 8.0373142372211451e-02  8.1424814279442884e-02  8.2490247174086470e-02  8.3569621116837259e-02 
 8.4663118524460582e-02  8.5770924200620935e-02  8.6893225367114288e-02  8.8030211695509050e-02 
 8.9182075339200709e-02  9.0349010965886642e-02  9.1531215790465206e-02  9.2728889608365492e-02 
 9.3942234829313340e-02  9.5171456511538938e-02  9.6416762396432265e-02  9.7678362943651814e-02 
 9.8956471366692764e-02  1.0025130366892068e-01  1.0156307868007645e-01  1.0289201809325911e-01 
 1.0423834650239268e-01  1.0560229144018229e-01  1.0698408341656897e-01  1.0838395595768553e-01 
 1.0980214564532323e-01  1.1123889215691472e-01  1.1269443830604006e-01  1.1416903008346277e-01 
 1.1566291669870292e-01  1.1717635062215410e-01  1.1870958762775148e-01  1.2026288683619824e-01 
 1.2183651075875761e-01  1.2343072534161791e-01  1.2504580001083801e-01  1.2668200771788102e-01 
 1.2833962498574381e-01  1.3001893195568989e-01  1.3172021243459436e-01  1.3344375394290692e-01 
 1.3518984776324486e-01  1.3695878898961969e-01  1.3875087657730895e-01  1.4056641339338025e-01 
 1.4240570626787671e-01  1.4426906604567183e-01  1.4615680763900296e-01  1.4806925008069244e-01 
 1.5000671657806472e-01  1.5196953456756915e-01  1.5395803577011771e-01  1.5597255624714643e-01 
 1.5801343645741070e-01  1.6008102131452356e-01  1.6217566024524685e-01  1.6429770724854537e-01 
 1.6644752095541362e-01  1.6862546468948425e-01  1.7083190652843230e-01  1.7306721936618016e-01 
 1.7533178097591759e-01  1.7762597407394656e-01  1.7995018638436105e-01  1.8230481070457333e-01 
 1.8469024497169778e-01  1.8710689232980307e-01  1.8955516119804461e-01  1.9203546533968827e-01 
 1.9454822393203730e-01  1.9709386163727441e-01  1.9967280867423073e-01  2.0228550089109357e-01 
 2.0493237983906606e-01  2.0761389284699022e-01  2.1033049309694710e-01  2.1308263970084387e-01 
 2.1587079777800741e-01  2.1869543853378878e-01  2.2155703933919871e-01  2.2445608381158411e-01 
 2.2739306189636088e-01  2.3036846994981561e-01  2.3338281082299112e-01  2.3643659394666933e-01 
 2.3953033541746654e-01  2.4266455808505466e-01  2.4583979164052430e-01  2.4905657270590367e-01 
 2.5231544492484903e-01  2.5561695905452192e-01  2.5896167305866807e-01  2.6235015220191499e-01 
 2.6578296914530319e-01  2.6926070404306574e-01  2.7278394464067807e-01  2.7635328637418682e-01 
 2.7996933247084038e-01  2.8363269405103558e-01  2.8734399023159873e-01  2.9110384823041746e-01 
 2.9491290347244242e-01  2.9877179969707551e-01  3.0268118906696323e-01  3.0664173227821367e-01 
 3.1065409867205623e-01  3.1471896634796115e-01  3.1883702227824040e-01  3.2300896242414767e-01 
 3.2723549185349715e-01  3.3151732485982205e-01  3.3585518508309214e-01  3.4024980563200857e-01 
 3.4470192920790416e-01  3.4921230823025989e-01  3.5378170496386563e-01  3.5841089164764489e-01 
 3.6310065062516522e-01  3.6785177447685585e-01  3.7266506615395595e-01  3.7754133911421489e-01 
 3.8248141745936909e-01  3.8748613607441668e-01  3.9255634076871537e-01  3.9769288841892603e-01 
 4.0289664711382700e-01  4.0816849630102325e-01  4.1350932693557485e-01  4.1892004163057078e-01 
 4.2440155480967323e-01  4.2995479286165450e-01  4.3558069429696344e-01  4.4128020990633271e-01 
 4.4705430292146581e-01  4.5290394917782512e-01  4.5883013727955063e-01  4.6483386876653654e-01 
 4.7091615828369354e-01  4.7707803375242658e-01  4.8332053654435553e-01  4.8964472165731016e-01 
 4.9605165789362671e-01  5.0254242804077820e-01  5.0911812905436815e-01  5.1577987224351873e-01 
 5.2252878345868436e-01  5.2936600328192374e-01  5.3629268721966084e-01  5.4331000589796574e-01 
 5.5041914526039759e-01  5.5762130676842936e-01  5.6491770760449778e-01  5.7230958087771000e-01 
 5.7979817583224269e-01  5.8738475805846690e-01  5.9507060970683534e-01  6.0285702970457000e-01 
 6.1074533397518294e-01  6.1873685566087044e-01  6.2683294534781819e-01  6.3503497129445285e-01 
 6.4334431966268091e-01  6.5176239475215370e-01  6.6029061923759713e-01  6.6893043440924738e-01 
 6.7768330041643299e-01  6.8655069651433964e-01  6.9553412131401426e-01  7.0463509303562954e-01 
 7.1385514976506748e-01  7.2319584971385997e-01  7.3265877148253022e-01  7.4224551432737973e-01 
 7.5195769843076676e-01  7.6179696517492068e-01  7.7176497741933958e-01  7.8186341978181773e-01 
 7.9209399892314958e-01  8.0245844383555964e-01  8.1295850613490672e-01  8.2359596035671045e-01 
 8.3437260425605253e-01  8.4529025911140143e-01  8.5635077003241433e-01  8.6755600627175877e-01 
 8.7890786154103051e-01  8.9040825433078830e-01  9.0205912823478573e-01  9.1386245227844298e-01 
 9.2582022125161612e-01  9.3793445604572268e-01  9.5020720399527558e-01  9.6264053922388881e-01 
 9.7523656299480854e-01  9.8799740406603154e-01  1.0009252190500713e+00  1.0140221927784292e+00 
 1.0272905386708377e+00  1.0407324991093325e+00  1.0543503458172208e+00  1.0681463802430078e+00 
 1.0821229339493497e+00  1.0962823690070844e+00  1.1106270783944392e+00  1.1251594864014429e+00 
 1.1398820490396366e+00  1.1547972544571474e+00  1.1699076233591910e+00  1.1852157094340754e+00 
 1.2007240997847823e+00  1.2164354153661923e+00  1.2323523114280330e+00  1.2484774779636232e+00 
 1.2648136401644863e+00  1.2813635588809156e+00  1.2981300310885653e+00  1.3151158903611440e+00 
 1.3323240073492968e+00  1.3497572902657515e+00  1.3674186853768167e+00  1.3853111775002969e+00 
 1.4034377905099491e+00  1.4218015878465151e+00  1.4404056730354529e+00  1.4592531902114381e+00 
 1.4783473246497330e+00  1.4976913033045034e+00  1.5172883953541823e+00  1.5371419127539696e+00 
 1.5572552107955582e+00  1.5776316886741897e+00  1.5982747900631229e+00  1.6191880036956257e+00 
 1.6403748639545770e+00  1.6618389514697873e+00  1.6835838937231336e+00  1.7056133656616119e+00 
 1.7279310903184144e+00  1.7505408394421214e+00  1.7734464341341503e+00  1.7966517454945219e+00 
 1.8201606952760871e+00  1.8439772565473125e+00  1.8681054543637388e+00  1.8925493664482240e+00 
 1.9173131238800898e+00  1.9424009117932819e+00  1.9678169700836692e+00  1.9935655941255954e+00 
 2.0196511354978077e+00  2.0460780027188843e+00  2.0728506619922840e+00  2.0999736379611451e+00 
 2.1274515144729627e+00  2.1552889353542661e+00  2.1834906051954448e+00  2.2120612901458161e+00 
 2.2410058187191426e+00  2.2703290826096429e+00  2.3000360375187072e+00  2.3301317039924201e+00 
 2.3606211682700469e+00  2.3915095831436175e+00  2.4228021688287642e+00  2.4545042138469464e+00 
 2.4866210759192255e+00  2.5191581828717347e+00  2.5521210335529889e+00  2.5855151987632086e+00 
 2.6193463221957956e+00  2.6536201213911315e+00  2.6883423887028544e+00  2.7235189922767837e+00 
 2.7591558770426512e+00  2.7952590657187919e+00  2.8318346598300259e+00  2.8688888407388120e+00 
 2.9064278706899160e+00  2.9444580938687457e+00  2.9829859374735341e+00  3.0220179128015512e+00 
 3.0615606163495266e+00  3.1016207309284751e+00  3.1422050267931083e+00  3.1833203627860214e+00 
 3.2249736874968558e+00  3.2671720404366265e+00  3.3099225532274166e+00  3.3532324508076377e+00 
 3.3971090526530632e+00  3.4415597740138351e+00  3.4865921271676670e+00  3.5322137226894101e+00 
 3.5784322707372986e+00  3.6252555823559560e+00  3.6726915707964913e+00  3.7207482528538520e+00 
 3.7694337502216864e+00  3.8187562908649246e+00  3.8687242104103285e+00  3.9193459535552297e+00 
 3.9706300754947041e+00  4.0225852433674207e+00  4.0752202377204094e+00  4.1285439539929900e+00 
 4.1825654040201297e+00  4.2372937175554597e+00  4.2927381438142245e+00  4.3489080530364266e+00 
 4.4058129380704214e+00  4.4634624159772036e+00  4.5218662296557586e+00  4.5810342494896039e+00 
 4.6409764750149174e+00  4.7017030366104819e+00  4.7632241972097420e+00  4.8255503540352649e+00 
 4.8886920403558962e+00  4.9526599272669065e+00  5.0174648254934358e+00  5.0831176872175243e+00 
 5.1496296079290653e+00  5.2170118283009623e+00  5.2852757360888356e+00  5.3544328680555751e+00 
 5.4244949119210855e+00  5.4954737083375305e+00  5.5673812528904554e+00  5.6402296981260145e+00 
 5.7140313556048499e+00  5.7887986979827293e+00  5.8645443611184689e+00  5.9412811462094197e+00 
 6.0190220219549042e+00  6.0977801267479546e+00  6.1775687708957312e+00  6.2584014388689999e+00 
 6.3402917915810386e+00  6.4232536686963631e+00  6.5073010909696620e+00  6.5924482626153411e+00 
 6.6787095737080664e+00  6.7660996026147231e+00  6.8546331184581941e+00  6.9443250836133732e+00 
 7.0351906562358613e+00  7.1272451928236764e+00  7.2205042508126107e+00  7.3149835912054311e+00 
 7.4106991812355343e+00  7.5076671970654463e+00  7.6059040265206379e+00  7.7054262718590971e+00 
 7.8062507525771618e+00  7.9083945082520435e+00  8.0118748014215644e+00  8.1167091205015609e+00 
 8.2229151827414775e+00  8.3305109372186088e+00  8.4395145678715533e+00  8.5499444965733282e+00 
 8.6618193862447193e+00  8.7751581440083548e+00  8.8899799243840683e+00  9.0063041325259992e+00 
 9.1241504275022027e+00  9.2435387256170127e+00  9.3644892037769711e+00  9.4870223029007565e+00 
 9.6111587313737630e+00  9.7369194685478586e+00  9.8643257682869496e+00  9.9933991625589318e+00 
 1.0124161465074641e+01  1.0256634774974433e+01  1.0390841480562980e+01  1.0526804263092947e+01 
 1.0664546100598191e+01  1.0804090271777088e+01  1.0945460359926695e+01  1.1088680256928383e+01 
 1.1233774167285645e+01  1.1380766612214627e+01  1.1529682433788398e+01  1.1680546799135241e+01 
 1.1833385204691966e+01  1.1988223480512888e+01  1.2145087794635147e+01  1.2304004657501185e+01 
 1.2465000926439060e+01  1.2628103810201413e+01  1.2793340873563798e+01  1.2960740041983204e+01 
 1.3130329606317520e+01  1.3302138227606759e+01  1.3476194941916839e+01  1.3652529165246749e+01 
 1.3831170698499928e+01  1.4012149732520678e+01  1.4195496853196520e+01  1.4381243046627182e+01 
 1.4569419704361477e+01  1.4760058628702435e+01  1.4953192038082012e+01  1.5148852572506067e+01 
 1.5347073299070612e+01  1.5547887717550216e+01  1.5751329766059566e+01  1.5957433826789069e+01 
 1.6166234731815532e+01  1.6377767768988878e+01  1.6592068687895853e+01  1.6809173705901809e+01 
 1.7029119514271525e+01  1.7251943284370107e+01  1.7477682673945036e+01  1.7706375833490441e+01 
 1.7938061412694626e+01  1.8172778566971843e+01  1.8410566964079852e+01  1.8651466790823719e+01 
 1.8895518759847530e+01  1.9142764116514918e+01  1.9393244645879630e+01  1.9647002679747288e+01 
 1.9904081103829594e+01  2.0164523364992085e+01  2.0428373478596779e+01  2.0695676035940860e+01 
 2.0966476211792724e+01  2.1240819772026622e+01  2.1518753081357204e+01  2.1800323111175242e+01 
 2.2085577447485953e+01  2.2374564298951135e+01  2.2667332505036430e+01  2.2963931544265524e+01 
 2.3264411542581971e+01  2.3568823281820666e+01  2.3877218208290067e+01  2.4189648441466765e+01 
 2.4506166782803767e+01  2.4826826724654115e+01  2.5151682459311179e+01  2.5480788888167297e+01 
 2.5814201630992265e+01  2.6151977035333164e+01  2.6494172186037272e+01  2.6840844914899513e+01 
 2.7192053810436175e+01  2.7547858227786524e+01  2.7908318298743932e+01  2.8273494941918383e+01 
 2.8643449873031617e+01  2.9018245615347574e+01  2.9397945510238760e+01  2.9782613727891125e+01 
 3.0172315278149011e+01  3.0567116021501931e+01  3.0967082680215178e+01  3.1372282849606034e+01 
 3.1782785009467542e+01  3.2198658535641748e+01  3.2619973711744407e+01  3.3046801741043041e+01 
 3.3479214758490500e+01  3.3917285842915909e+01  3.4361089029375186e+01  3.4810699321663158e+01 
 3.5266192704989315e+01  3.5727646158819631e+01  3.6195137669885973e+01  3.6668746245366457e+01 
 3.7148551926237580e+01  3.7634635800801377e+01  3.8127080018389577e+01  3.8625967803247036e+01 
 3.9131383468596773e+01  3.9643412430889192e+01  4.0162141224237580e+01  4.0687657515042652e+01 
 4.1220050116808316e+01  4.1759409005151440e+01  4.2305825333007867e+01  4.2859391446037520e+01 
 4.3420200898231052e+01  4.3988348467720677e+01  4.4563930172797861e+01  4.5147043288140786e+01 
 4.5737786361253669e+01  4.6336259229121957e+01  4.6942563035084746e+01  4.7556800245928308e+01 
 4.8179074669203210e+01  4.8809491470768073e+01  4.9448157192562803e+01  5.0095179770614479e+01 
 5.0750668553278764e+01  5.1414734319720040e+01  5.2087489298633400e+01  5.2769047187211491e+01 
 5.3459523170359660e+01  5.4159033940162452e+01  5.4867697715604884e+01  5.5585634262551665e+01 
 5.6312964913988019e+01  5.7049812590525228e+01  5.7796301821174218e+01  5.8552558764391776e+01 
 5.9318711229401266e+01  6.0094888697792797e+01  6.0881222345405902e+01  6.1677845064498584e+01 
 6.2484891486206401e+01  6.3302498003295469e+01  6.4130802793213178e+01  6.4969945841440435e+01 