  <PP_INFO>

############################################################
#    Opium Parameter File                                  #
############################################################
#-----------------------------------------------------------
#Command line   : opium Ce Ce.log ae ps nl tc2 ke upf qmcpack rpt 
 
#Opium version  : 4.1 
#Compile Host   : py-garuda.cos.ncsu.edu 
#Compile OS     : Linux 5.15.0-113-generic x86_64 
#Compile Date   : Sat Jul 13 02:11:52 EDT 2024 
#-----------------------------------------------------------
#Execution Host : py-garuda.cos.ncsu.edu 
#Execution Date : Fri Jun  6 22:55:53 2025
 
#-----------------------------------------------------------
############################################################
[Atom]
Ce
14            
100   2.00  -
200   2.00  -
210   6.00  -
300   2.00  -
310   6.00  -
320  10.00  -
400   2.00  -
410   6.00  -
420  10.00  -
500   2.00  -
510   6.00  -
520   1.00  -
600   2.00  -
430   1.00  -

[Pseudo]
5 -1 -1 -1 -1 -1
g

[Gaussinfo]
12 5
2 2 2 2 4
2 4.00255000 119.42279100
2 2.09122700 -2.01148000
2 3.16455780 76.60689560
2 1.66488840 -0.43133450
2 2.47367000 68.86468440
2 2.27565100 -3.74701880
2 5.52474000 -23.33505700
2 3.71638600 -17.34056600
1 4.59950000 12.00000000
3 4.59950000 55.19400000
2 4.60050000 -54.14950000
2 1.05050000 -0.09950000

[KBdesign]
s

[Relativity]
srl

[XC]
pbe

[Configs]
7

500   2.00  -
510   6.00  -
520   1.00  -
600   2.00  -
430   1.00  -

500   2.00  -
510   6.00  -
520   2.00  -
600   1.00  -
430   1.00  -

500   2.00  -
510   6.00  -
520   2.00  -
600   0.00  -
430   1.00  -

500   2.00  -
510   6.00  -
520   0.00  -
600   0.00  -
430   2.00  -

500   2.00  -
510   6.00  -
520   1.00  -
600   2.00  -
430   1.00  -

500   2.00  -
510   6.00  -
520   1.00  -
600   2.00  -
430   0.00  -

500   2.00  -
510   6.00  -
520   1.00  -
600   1.00  -
430   1.00  -

############################################################
  </PP_INFO>



<PP_HEADER>
   0         Version Number
   Ce        Element
   NC        Norm - Conserving pseudopotential
    F      Nonlinear Core Correction
SLA  PW   PBE  PBE     PBE  Exchange-Correlation functional
 12          Z valence
 0          Total energy
 0.000000   0.000000     Suggested cutoff for wfc and rho
 3           Max angular momentum component
 1180           Number of points in mesh
 4  3     Number of Wavefuncitons, Number of Projectors
 Wavefunctions         nl  l   occ
                      5S  0  2.000000
                      5P  1  6.000000
                      5D  2  1.000000
                      4F  3  1.000000
</PP_HEADER>
<PP_MESH>
  <PP_R>
 2.5833941322341277e-05  2.6171975017925200e-05  2.6514431839578986e-05  2.6861369663320580e-05 
 2.7212847122467927e-05  2.7568923617548204e-05  2.7929659326336532e-05  2.8295115214026297e-05 
 2.8665353043532350e-05  2.9040435385929064e-05  2.9420425631025053e-05  2.9805387998076142e-05 
 3.0195387546638615e-05  3.0590490187564412e-05  3.0990762694140259e-05  3.1396272713372401e-05 
 3.1807088777419270e-05  3.2223280315173478e-05  3.2644917663995466e-05  3.3072072081600736e-05 
 3.3504815758102524e-05  3.3943221828212141e-05  3.4387364383598864e-05  3.4837318485411714e-05 
 3.5293160176964753e-05  3.5754966496588826e-05  3.6222815490651108e-05  3.6696786226745122e-05 
 3.7176958807053350e-05  3.7663414381884724e-05  3.8156235163389208e-05  3.8655504439451840e-05 
 3.9161306587768614e-05  3.9673727090106375e-05  4.0192852546749693e-05  4.0718770691136267e-05 
 4.1251570404684263e-05  4.1791341731813386e-05  4.2338175895162619e-05  4.2892165311007086e-05 
 4.3453403604876617e-05  4.4021985627378709e-05  4.4598007470228384e-05  4.5181566482488102e-05 
 4.5772761287019855e-05  4.6371691797152706e-05  4.6978459233568392e-05  4.7593166141407838e-05 
 4.8215916407601515e-05  4.8846815278426664e-05  4.9485969377293969e-05  5.0133486722767432e-05 
 5.0789476746819598e-05  5.1454050313325831e-05  5.2127319736800645e-05  5.2809398801379034e-05 
 5.3500402780046342e-05  5.4200448454119606e-05  5.4909654132983930e-05  5.5628139674087072e-05 
 5.6356026503195431e-05  5.7093437634915622e-05  5.7840497693484029e-05  5.8597332933828606e-05 
 5.9364071262906325e-05  6.0140842261319707e-05  6.0927777205216269e-05  6.1725009088474584e-05 
 6.2532672645180282e-05  6.3350904372396817e-05  6.4179842553233586e-05  6.5019627280216074e-05 
 6.5870400478961928e-05  6.6732305932166642e-05  6.7605489303903236e-05  6.8490098164239802e-05 
 6.9386282014179183e-05  7.0294192310925026e-05  7.1213982493478458e-05  7.2145808008569376e-05 
 7.3089826336927762e-05  7.4046197019897943e-05  7.5015081686401593e-05  7.5996644080253401e-05 
 7.6991050087834130e-05  7.7998467766125931e-05  7.9019067371114042e-05  8.0053021386560872e-05 
 8.1100504553155976e-05  8.2161693898047625e-05  8.3236768764760794e-05  8.4325910843506796e-05 
 8.5429304201889168e-05  8.6547135316011661e-05  8.7679593101993122e-05  8.8826868947894738e-05 
 8.9989156746065151e-05  9.1166652925908490e-05  9.2359556487081745e-05  9.3568069033126013e-05 
 9.4792394805537909e-05  9.6032740718287032e-05  9.7289316392784757e-05  9.8562334193310919e-05 
 9.9852009262903574e-05  1.0115855955971909e-04  1.0248220589386736e-04  1.0382317196472925e-04 
 1.0518168439876239e-04  1.0655797278780149e-04  1.0795226972786001e-04  1.0936481085843939e-04 
 1.1079583490235268e-04  1.1224558370606926e-04  1.1371430228058762e-04  1.1520223884284235e-04 
 1.1670964485765398e-04  1.1823677508022680e-04  1.1978388759920315e-04  1.2135124388028100e-04 
 1.2293910881040231e-04  1.2454775074251966e-04  1.2617744154094811e-04  1.2782845662731148e-04 
 1.2950107502708894e-04  1.3119557941677109e-04  1.3291225617163282e-04  1.3465139541413162e-04 
 1.3641329106293872e-04  1.3819824088261233e-04  1.4000654653392025e-04  1.4183851362482150e-04 
 1.4369445176211492e-04  1.4557467460376268e-04  1.4747949991190024e-04  1.4940924960653843e-04 
 1.5136424981996861e-04  1.5334483095187990e-04  1.5535132772519759e-04  1.5738407924265215e-04 
 1.5944342904408793e-04  1.6152972516452296e-04  1.6364332019296716e-04  1.6578457133201087e-04 
 1.6795384045819307e-04  1.7015149418315905e-04  1.7237790391561901e-04  1.7463344592411680e-04 
 1.7691850140062024e-04  1.7923345652494352e-04  1.8157870253001271e-04  1.8395463576798414e-04 
 1.8636165777723021e-04  1.8880017535019938e-04  1.9127060060216544e-04  1.9377335104087595e-04 
 1.9630884963711155e-04  1.9887752489616982e-04  2.0147981093028336e-04  2.0411614753198552e-04 
 2.0678698024843677e-04  2.0949276045672302e-04  2.1223394544013947e-04  2.1501099846547267e-04 
 2.1782438886129346e-04  2.2067459209727496e-04  2.2356208986454778e-04  2.2648737015710710e-04 
 2.2945092735428483e-04  2.3245326230430103e-04  2.3549488240890771e-04  2.3857630170914213e-04 
 2.4169804097220001e-04  2.4486062777944720e-04  2.4806459661558082e-04  2.5131048895896021e-04 
 2.5459885337311699e-04  2.5793024559946369e-04  2.6130522865121567e-04  2.6472437290854138e-04 
 2.6818825621495825e-04  2.7169746397498945e-04  2.7525258925309876e-04  2.7885423287391951e-04 
 2.8250300352379608e-04  2.8619951785365259e-04  2.8994440058320895e-04  2.9373828460655988e-04 
 2.9758181109913452e-04  3.0147562962605848e-04  3.0542039825193033e-04  3.0941678365203722e-04 
 3.1346546122502282e-04  3.1756711520703347e-04  3.2172243878735474e-04  3.2593213422556157e-04 
 3.3019691297020263e-04  3.3451749577903615e-04  3.3889461284084037e-04  3.4332900389881656e-04 
 3.4782141837560814e-04  3.5237261549995362e-04  3.5698336443499949e-04  3.6165444440828983e-04 
 3.6638664484345778e-04  3.7118076549364003e-04  3.7603761657663672e-04  3.8095801891184077e-04 
 3.8594280405895783e-04  3.9099281445854217e-04  3.9610890357437065e-04  4.0129193603768071e-04 
 4.0654278779329471e-04  4.1186234624765699e-04  4.1725151041880753e-04  4.2271119108831757e-04 
 4.2824231095521515e-04  4.3384580479192221e-04  4.3952261960223434e-04  4.4527371478136543e-04 
 4.5110006227808900e-04  4.5700264675899946e-04  4.6298246577492261e-04  4.6904052992950500e-04 
 4.7517786305000713e-04  4.8139550236033396e-04  4.8769449865632760e-04  4.9407591648335445e-04 
 5.0054083431621524e-04  5.0709034474141106e-04  5.1372555464179227e-04  5.2044758538362444e-04 
 5.2725757300610225e-04  5.3415666841334208e-04  5.4114603756888816e-04  5.4822686169276333e-04 
 5.5540033746109764e-04  5.6266767720836934e-04  5.7003010913229274e-04  5.7748887750138625e-04 
 5.8504524286525695e-04  5.9270048226763635e-04  6.0045588946220317e-04  6.0831277513123227e-04 
 6.1627246710710187e-04  6.2433631059670089e-04  6.3250566840877126e-04  6.4078192118422730e-04 
 6.4916646762948663e-04  6.5766072475285421e-04  6.6626612810400158e-04  6.7498413201657595e-04 
 6.8381620985398864e-04  6.9276385425841541e-04  7.0182857740305727e-04  7.1101191124769969e-04 
 7.2031540779762013e-04  7.2974063936587881e-04  7.3928919883904350e-04  7.4896269994639234e-04 
 7.5876277753263535e-04  7.6869108783421023e-04  7.7874930875918816e-04  7.8893914017084542e-04 
 7.9926230417494285e-04  8.0972054541076732e-04  8.2031563134597947e-04  8.3104935257531957e-04 
 8.4192352312322319e-04  8.5293998075039370e-04  8.6410058726439068e-04  8.7540722883427838e-04 
 8.8686181630939331e-04  8.9846628554228112e-04  9.1022259771586208e-04  9.2213273967487505e-04 
 9.3419872426165815e-04  9.4642259065632511e-04  9.5880640472139006e-04  9.7135225935090477e-04 
 9.8406227482416230e-04  9.9693859916402889e-04  1.0099834084999640e-03  1.0231989074357939e-03 
 1.0365873294222929e-03  1.0501509371346422e-03  1.0638920228548286e-03  1.0778129088590430e-03 
 1.0919159478101534e-03  1.1062035231553095e-03  1.1206780495287508e-03  1.1353419731598841e-03 
 1.1501977722867050e-03  1.1652479575746245e-03  1.1804950725407769e-03  1.1959416939838815e-03 
 1.2115904324197259e-03  1.2274439325223518e-03  1.2435048735710092e-03  1.2597759699029627e-03 
 1.2762599713722178e-03  1.2929596638142568e-03  1.3098778695168497e-03  1.3270174476970270e-03 
 1.3443812949842954e-03  1.3619723459101733e-03  1.3797935734041358e-03  1.3978479892960459e-03 
 1.4161386448251604e-03  1.4346686311557974e-03  1.4534410798997511e-03  1.4724591636455370e-03 
 1.4917260964945743e-03  1.5112451346043715e-03  1.5310195767388266e-03  1.5510527648257251e-03 
 1.5713480845215349e-03  1.5919089657835893e-03  1.6127388834497581e-03  1.6338413578257062e-03 
 1.6552199552798260e-03  1.6768782888459716e-03  1.6988200188340647e-03  1.7210488534486967e-03 
 1.7435685494158243e-03  1.7663829126176652e-03  1.7894957987359007e-03  1.8129111139032952e-03 
 1.8366328153638454e-03  1.8606649121415538e-03  1.8850114657179768e-03  1.9096765907186159e-03 
 1.9346644556083013e-03  1.9599792833956730e-03  1.9856253523468791e-03  2.0116069967086123e-03 
 2.0379286074406083e-03  2.0645946329577308e-03  2.0916095798817562e-03  2.1189780138030152e-03 
 2.1467045600519793e-03  2.1747939044809567e-03  2.2032507942560111e-03  2.2320800386592451e-03 
 2.2612865099015788e-03  2.2908751439461666e-03  2.3208509413425874e-03  2.3512189680719433e-03 
 2.3819843564030318e-03  2.4131523057597058e-03  2.4447280835995888e-03  2.4767170263042897e-03 
 2.5091245400812620e-03  2.5419561018774671e-03  2.5752172603049910e-03  2.6089136365787750e-03 
 2.6430509254666053e-03  2.6776348962515564e-03  2.7126713937070039e-03  2.7481663390844088e-03 
 2.7841257311140202e-03  2.8205556470186784e-03  2.8574622435408783e-03  2.8948517579832733e-03 
 2.9327305092627970e-03  2.9711048989785661e-03  3.0099814124937793e-03  3.0493666200317512e-03 
 3.0892671777862962e-03  3.1296898290466414e-03  3.1706414053370604e-03  3.2121288275714140e-03 
 3.2541591072228052e-03  3.2967393475085332e-03  3.3398767445905458e-03  3.3835785887916239e-03 
 3.4278522658274524e-03  3.4727052580548253e-03  3.5181451457361843e-03  3.5641796083206983e-03 
 3.6108164257421110e-03  3.6580634797335663e-03  3.7059287551596447e-03  3.7544203413658107e-03 
 3.8035464335455516e-03  3.8533153341253701e-03  3.9037354541679187e-03  3.9548153147934903e-03 
 4.0065635486201045e-03  4.0589889012224442e-03  4.1121002326098771e-03  4.1659065187238213e-03 
 4.2204168529546863e-03  4.2756404476787004e-03  4.3315866358148106e-03  4.3882648724019695e-03 
 4.4456847361970591e-03  4.5038559312937255e-03  4.5627882887623933e-03  4.6224917683117383e-03 
 4.6829764599719114e-03  4.7442525857997525e-03  4.8063305016063729e-03  4.8692206987072965e-03 
 4.9329338056955186e-03  4.9974805902377626e-03  5.0628719608942436e-03  5.1291189689622414e-03 
 5.1962328103437932e-03  5.2642248274378340e-03  5.3331065110570714e-03  5.4028895023699878e-03 
 5.4735855948682037e-03  5.5452067363596161e-03  5.6177650309876008e-03  5.6912727412766475e-03 
 5.7657422902047490e-03  5.8411862633029202e-03  5.9176174107821826e-03  5.9950486496883641e-03 
 6.0734930660851392e-03  6.1529639172655829e-03  6.2334746339926935e-03  6.3150388227692237e-03 
 6.3976702681372028e-03  6.4813829350075722e-03  6.5661909710202759e-03  6.6521087089352589e-03 
 6.7391506690547068e-03  6.8273315616770563e-03  6.9166662895830391e-03  7.0071699505542947e-03 
 7.0988578399249378e-03  7.1917454531664959e-03  7.2858484885066901e-03  7.3811828495824652e-03 
 7.4777646481277559e-03  7.5756102066963770e-03  7.6747360614206148e-03  7.7751589648058471e-03 
 7.8768958885617607e-03  7.9799640264706165e-03  8.0843807972930341e-03  8.1901638477118004e-03 
 8.2973310553142131e-03  8.4059005316134312e-03  8.5158906251093409e-03  8.6273199243895368e-03 
 8.7402072612708138e-03  8.8545717139817820e-03  8.9704326103871510e-03  9.0878095312541714e-03 
 9.2067223135618419e-03  9.3271910538533925e-03  9.4492361116326699e-03  9.5728781128049008e-03 
 9.6981379531625739e-03  9.8250368019168356e-03  9.9535961052751604e-03  1.0083837590065797e-02 
 1.0215783267409665e-02  1.0349455436440277e-02  1.0484876688072353e-02  1.0622069908819743e-02 
 1.0761058284663267e-02  1.0901865304969262e-02  1.1044514766459288e-02  1.1189030777231861e-02 
 1.1335437760836762e-02  1.1483760460402682e-02  1.1634023942818870e-02  1.1786253602971497e-02 
 1.1940475168035461e-02  1.2096714701822300e-02  1.2254998609185096e-02  1.2415353640480927e-02 
 1.2577806896091745e-02  1.2742385831004396e-02  1.2909118259450599e-02  1.3078032359607599e-02 
 1.3249156678360356e-02  1.3422520136126041e-02  1.3598152031741617e-02  1.3776082047415473e-02 
 1.3956340253743753e-02  1.4138957114792352e-02  1.4323963493245440e-02  1.4511390655621303e-02 
 1.4701270277556480e-02  1.4893634449159010e-02  1.5088515680431751e-02  1.5285946906766601e-02 
 1.5485961494510724e-02  1.5688593246605508e-02  1.5893876408299337e-02  1.6101845672935131e-02 
 1.6312536187813604e-02  1.6525983560133229e-02  1.6742223863007957e-02  1.6961293641563662e-02 
 1.7183229919114296e-02  1.7408070203419012e-02  1.7635852493020989e-02  1.7866615283669326e-02 
 1.8100397574824879e-02  1.8337238876251272e-02  1.8577179214692156e-02  1.8820259140635801e-02 
 1.9066519735168274e-02  1.9316002616916132e-02  1.9568749949080203e-02  1.9824804446561192e-02 
 2.0084209383178595e-02  2.0347008598984119e-02  2.0613246507670720e-02  2.0882968104078640e-02 
 2.1156218971799631e-02  2.1433045290880724e-02  2.1713493845628679e-02  2.1997612032516760e-02 
 2.2285447868194783e-02  2.2577049997604050e-02  2.2872467702198477e-02  2.3171750908273260e-02 
 2.3474950195402550e-02  2.3782116804987517e-02  2.4093302648916286e-02  2.4408560318337092e-02 
 2.4727943092546435e-02  2.5051504947993308e-02  2.5379300567401404e-02  2.5711385349010577e-02 
 2.6047815415939320e-02  2.6388647625669674e-02  2.6733939579656300e-02  2.7083749633061274e-02 
 2.7438136904616162e-02  2.7797161286613345e-02  2.8160883455027902e-02  2.8529364879771982e-02 
 2.8902667835083395e-02  2.9280855410050075e-02  2.9663991519272327e-02  3.0052140913664510e-02 
 3.0445369191398130e-02  3.0843742808987988e-02  3.1247329092523663e-02  3.1656196249047634e-02 
 3.2070413378082509e-02  3.2490050483308969e-02  3.2915178484396561e-02  3.3345869228989335e-02 
 3.3782195504848199e-02  3.4224231052152304e-02  3.4672050575961171e-02  3.5125729758840221e-02 
 3.5585345273651141e-02  3.6050974796509871e-02  3.6522697019914029e-02  3.7000591666042096e-02 
 3.7484739500226710e-02  3.7975222344604168e-02  3.8472123091942610e-02  3.8975525719650926e-02 
 3.9485515303971389e-02  4.0002178034357565e-02  4.0525601228040595e-02  4.1055873344786026e-02 
 4.1593084001843673e-02  4.2137323989093187e-02  4.2688685284387767e-02  4.3247261069098659e-02 
 4.3813145743862851e-02  4.4386434944537270e-02  4.4967225558361343e-02  4.5555615740331117e-02 
 4.6151704929787776e-02  4.6755593867223097e-02  4.7367384611304811e-02  4.7987180556124796e-02 
 4.8615086448672941e-02  4.9251208406539473e-02  4.9895653935849354e-02  5.0548531949430882e-02 
 5.1209952785222258e-02  5.1880028224918974e-02  5.2558871512865188e-02  5.3246597375192273e-02 
 5.3943322039207826e-02  5.4649163253038369e-02  5.5364240305528931e-02  5.6088674046403365e-02 
 5.6822586906688122e-02  5.7566102919403360e-02  5.8319347740524871e-02  5.9082448670220222e-02 
 5.9855534674362776e-02  6.0638736406327269e-02  6.1432186229070540e-02  6.2236018237501016e-02 
 6.3050368281141370e-02  6.3875373987087217e-02  6.4711174783266448e-02  6.5557911922002915e-02 
 6.6415728503888369e-02  6.7284769501966837e-02  6.8165181786235401e-02  6.9057114148465618e-02 
 6.9960717327349486e-02  7.0876144033974950e-02  7.1803548977634232e-02  7.2743088891970134e-02 
 7.3694922561464371e-02  7.4659210848272525e-02  7.5636116719410187e-02  7.6625805274294703e-02 
 7.7628443772647410e-02  7.8644201662760899e-02  7.9673250610136193e-02  8.0715764526494649e-02 
 8.1771919599169560e-02  8.2841894320881668e-02  8.3925869519905716e-02  8.5024028390630335e-02 
 8.6136556524518376e-02  8.7263641941472389e-02  8.8405475121610427e-02  8.9562249037457589e-02 
 9.0734159186558916e-02  9.1921403624518838e-02  9.3124182998473137e-02  9.4342700580998737e-02 
 9.5577162304467306e-02  9.6827776795848183e-02  9.8094755411967063e-02  9.9378312275225561e-02 
 1.0067866430978858e-01  1.0199603127824490e-01  1.0333063581874785e-01  1.0468270348264092e-01 
 1.0605246277257749e-01  1.0744014518113774e-01  1.0884598522995156e-01  1.1027022050933322e-01 
 1.1171309171843473e-01  1.1317484270592464e-01  1.1465572051119892e-01  1.1615597540613129e-01 
 1.1767586093736976e-01  1.1921563396918658e-01  1.2077555472688893e-01  1.2235588684079764e-01 
 1.2395689739080128e-01  1.2557885695149337e-01  1.2722203963790010e-01  1.2888672315180641e-01 
 1.3057318882868846e-01  1.3228172168525915e-01  1.3401261046763793e-01  1.3576614770014872e-01 
 1.3754262973475742e-01  1.3934235680115606e-01  1.4116563305750238e-01  1.4301276664182325e-01 
 1.4488406972409085e-01  1.4677985855897990e-01  1.4870045353931569e-01  1.5064617925022106e-01 
 1.5261736452397223e-01  1.5461434249557204e-01  1.5663745065905071e-01  1.5868703092450304e-01 
 1.6076342967587204e-01  1.6286699782948882e-01  1.6499809089337827e-01  1.6715706902733987e-01 
 1.6934429710381707e-01  1.7156014476956061e-01  1.7380498650809995e-01  1.7607920170303182e-01 
 1.7838317470213708e-01  1.8071729488233618e-01  1.8308195671549507e-01  1.8547755983509162e-01 
 1.8790450910375484e-01  1.9036321468168749e-01  1.9285409209598423e-01  1.9537756231085657e-01 
 1.9793405179877696e-01  2.0052399261255352e-01  2.0314782245834812e-01  2.0580598476964965e-01 
 2.0849892878221579e-01  2.1122710960999336e-01  2.1399098832203595e-01  2.1679103202042424e-01 
 2.1962771391920763e-01  2.2250151342437854e-01  2.2541291621489332e-01  2.2836241432475293e-01 
 2.3135050622615810e-01  2.3437769691375207e-01  2.3744449798996603e-01  2.4055142775148119e-01 
 2.4369901127682198e-01  2.4688778051509583e-01  2.5011827437589351e-01  2.5339103882036640e-01 
 2.5670662695349511e-01  2.6006559911756560e-01  2.6346852298686868e-01  2.6691597366363667e-01 
 2.7040853377523966e-01  2.7394679357264912e-01  2.7753135103019216e-01  2.8116281194661086e-01 
 2.8484179004744320e-01  2.8856890708874455e-01  2.9234479296216587e-01  2.9617008580140669e-01 
 3.0004543209006129e-01  3.0397148677087632e-01  3.0794891335643726e-01  3.1197838404130357e-01 
 3.1606057981561159e-01  3.2019619058016319e-01  3.2438591526302080e-01  3.2863046193762768e-01 
 3.3293054794247490e-01  3.3728690000233069e-01  3.4170025435106238e-01  3.4617135685605904e-01 
 3.5070096314428578e-01  3.5528983872998599e-01  3.5993875914405582e-01  3.6464851006511007e-01 
 3.6941988745226401e-01  3.7425369767965244e-01  3.7915075767270884e-01  3.8411189504622734e-01 
 3.8913794824423209e-01  3.9422976668167614e-01  3.9938821088799437e-01  4.0461415265253520e-01 
 4.0990847517189510e-01  4.1527207319918097e-01  4.2070585319522591e-01  4.2621073348178073e-01 
 4.3178764439671674e-01  4.3743752845125222e-01  4.4316134048923955e-01  4.4896004784853644e-01 
 4.5483463052448808e-01  4.6078608133554871e-01  4.6681540609107058e-01  4.7292362376128766e-01 
 4.7911176664952437e-01  4.8538088056665712e-01  4.9173202500785917e-01  4.9816627333165731e-01 
 5.0468471294133244e-01  5.1128844546869312e-01  5.1797858696025390e-01  5.2475626806585018e-01 
 5.3162263422972111e-01  5.3857884588408933e-01  5.4562607864528168e-01  5.5276552351240793e-01 
 5.5999838706864324e-01  5.6732589168514347e-01  5.7474927572762891e-01  5.8226979376567123e-01 
 5.8988871678471844e-01  5.9760733240089448e-01  6.0542694507860950e-01  6.1334887635101754e-01 
 6.2137446504335847e-01  6.2950506749922308e-01  6.3774205780977811e-01  6.4608682804599082e-01 
 6.5454078849389230e-01  6.6310536789291974e-01  6.7178201367737711e-01  6.8057219222105103e-01 
 6.8947738908503797e-01  6.9849910926880321e-01  7.0763887746453025e-01  7.1689823831479782e-01 
 7.2627875667362773e-01  7.3578201787094921e-01  7.4540962798052324e-01  7.5516321409137299e-01 
 7.6504442458276567e-01  7.7505492940279264e-01  7.8519642035059434e-01  7.9547061136227870e-01 
 8.0587923880058043e-01  8.1642406174830984e-01  8.2710686230564301e-01  8.3792944589130025e-01 
 8.4889364154766767e-01  8.6000130224990423e-01  8.7125430521910729e-01  8.8265455223956191e-01 
 8.9420396998014817e-01  9.0590451031995312e-01  9.1775815067814248e-01  9.2976689434814963e-01 
 9.4193277083623672e-01  9.5425783620448634e-01  9.6674417341828045e-01  9.7939389269832688e-01 
 9.9220913187729165e-01  1.0051920567610972e+00  1.0183448614949497e+00  1.0316697689341543e+00 
 1.0451690310197825e+00  1.0588449291592565e+00  1.0726997746119138e+00  1.0867359088796078e+00 
 1.1009557041024389e+00  1.1153615634596448e+00  1.1299559215757433e+00  1.1447412449319927e+00 
 1.1597200322832304e+00  1.1748948150801701e+00  1.1902681578972216e+00  1.2058426588659110e+00 
 1.2216209501139708e+00  1.2376056982101762e+00  1.2537996046150000e+00  1.2702054061371684e+00 
 1.2868258753961856e+00  1.3036638212909151e+00  1.3207220894742884e+00  1.3380035628342293e+00 
 1.3555111619808695e+00  1.3732478457401298e+00  1.3912166116537832e+00  1.4094204964860357e+00 
 1.4278625767367519e+00  1.4465459691613873e+00  1.4654738312977307e+00  1.4846493619995325e+00 
 1.5040758019771214e+00  1.5237564343450907e+00  1.5436945851771517e+00  1.5638936240682502e+00 
 1.5843569647040345e+00  1.6050880654377764e+00  1.6260904298748422e+00  1.6473676074648096e+00 
 1.6689231941013323e+00  1.6907608327298573e+00  1.7128842139632907e+00  1.7352970767057112e+00 
 1.7580032087842699e+00  1.7810064475893308e+00  1.8043106807230018e+00  1.8279198466561490e+00 
 1.8518379353940073e+00  1.8760689891505007e+00  1.9006171030313859e+00  1.9254864257263362e+00 
 1.9506811602100782e+00  1.9762055644527055e+00  2.0020639521392853e+00  2.0282606933988832e+00 
 2.0548002155431218e+00  2.0816870038144106e+00  2.1089256021439606e+00  2.1365206139197199e+00 
 2.1644767027643610e+00  2.1927985933234297e+00  2.2214910720638423e+00  2.2505589880827976e+00 
 2.2800072539272871e+00  2.3098408464243283e+00  2.3400648075220598e+00  2.3706842451418435e+00 
 2.4017043340415132e+00  2.4331303166899252e+00  2.4649675041529431e+00  2.4972212769910236e+00 
 2.5298970861685444e+00  2.5630004539750271e+00  2.5965369749584206e+00  2.6305123168705915e+00 
 2.6649322216251874e+00  2.6998025062680342e+00  2.7351290639602359e+00  2.7709178649741144e+00 
 2.8071749577022262e+00  2.8439064696795375e+00  2.8811186086189968e+00  2.9188176634606542e+00 
 2.9570100054345043e+00  2.9957020891372435e+00  3.0349004536231075e+00  3.0746117235089896e+00 
 3.1148426100940192e+00  3.1555999124937806e+00  3.1968905187893868e+00  3.2387214071915769e+00 
 3.2810996472200533e+00  3.3240324008982434e+00  3.3675269239637049e+00  3.4115905670943558e+00 
 3.4562307771507674e+00  3.5014550984346751e+00  3.5472711739640199e+00  3.5936867467646132e+00 
 3.6407096611787320e+00  3.6883478641908307e+00  3.7366094067706026e+00  3.7855024452336115e+00 
 3.8350352426197256e+00  3.8852161700895977e+00  3.9360537083394056e+00  3.9875564490341113e+00 
 4.0397330962594742e+00  4.0925924679930601e+00  4.1461434975945028e+00  4.2003952353152618e+00 
 4.2553568498281358e+00  4.3110376297767923e+00  4.3674469853455742e+00  4.4245944498498195e+00 
 4.4824896813470518e+00  4.5411424642691900e+00  4.6005627110761491e+00  4.6607604639310640e+00 
 4.7217458963974446e+00  4.7835293151585274e+00  4.8461211617591351e+00  4.9095320143703169e+00 
 4.9737725895770888e+00  5.0388537441895593e+00  5.1047864770777567e+00  5.1715819310304667e+00 
 5.2392513946383854e+00  5.3078063042019226e+00  5.3772582456639642e+00  5.4476189565679158e+00 
 5.5189003280413989e+00  5.5911144068058265e+00  5.6642733972123986e+00  5.7383896633046172e+00 
 5.8134757309078582e+00  5.8895442897462562e+00  5.9666081955873072e+00  6.0446804724145160e+00 
 6.1237743146284886e+00  6.2039030892768086e+00  6.2850803383131044e+00  6.3673197808856745e+00 
 6.4506353156560525e+00  6.5350410231479126e+00  6.6205511681267133e+00  6.7071802020104805e+00 
 6.7949427653121255e+00  6.8838536901137282e+00  6.9739280025732109e+00  7.0651809254637401e+00 
 7.1576278807464853e+00  7.2512844921769242e+00  7.3461665879452998e+00  7.4422902033516252e+00 
 7.5396715835156876e+00  7.6383271861225124e+00  7.7382736842037492e+00  7.8395279689554549e+00 
 7.9421071525927509e+00  8.0460285712418180e+00  8.1513097878697511e+00  8.2579685952527413e+00 
 8.3660230189830909e+00  8.4754913205155944e+00  8.5863920002537526e+00  8.6987438006764002e+00 
 8.8125657095052272e+00  8.9278769629137056e+00  9.0446970487781240e+00  9.1630457099710423e+00 
 9.2829429476978831e+00  9.4044090248771841e+00  9.5274644695650927e+00  9.6521300784246460e+00 
 9.7784269202404559e+00  9.9063763394793867e+00  1.0035999959897826e+01  1.0167319688196137e+01 
 1.0300357717720960e+01  1.0435136532215925e+01  1.0571678909621468e+01  1.0710007925924357e+01 
 1.0850146959057579e+01  1.0992119692851285e+01  1.1135950121035407e+01  1.1281662551294605e+01 
 1.1429281609376421e+01  1.1578832243253016e+01  1.1730339727337462e+01  1.1883829666755172e+01 
 1.2039328001671226e+01  1.2196861011674329e+01  1.2356455320218116e+01  1.2518137899120577e+01 
 1.2681936073122369e+01  1.2847877524504751e+01  1.3015990297767967e+01  1.3186302804370824e+01 
 1.3358843827532294e+01  1.3533642527095958e+01  1.3710728444458081e+01  1.3890131507560174e+01 
 1.4071882035946929e+01  1.4256010745890174e+01  1.4442548755580161e+01  1.4631527590384502e+01 
 1.4822979188176070e+01  1.5016935904730564e+01  1.5213430519194716e+01  1.5412496239626050e+01 
 1.5614166708605113e+01  1.5818476008921158e+01  1.6025458669332213e+01  1.6235149670400528e+01 
 1.6447584450404367e+01  1.6662798911327165e+01  1.6880829424925054e+01  1.7101712838873759e+01 
 1.7325486482995963e+01  1.7552188175570162e+01  1.7781856229721907e+01  1.8014529459899016e+01 
 1.8250247188431167e+01  1.8489049252175512e+01  1.8730976009249208e+01  1.8976068345849999e+01 
 1.9224367683166115e+01  1.9475915984376545e+01  1.9730755761742898e+01  1.9988930083794092e+01 
 2.0250482582605034e+01  2.0515457461170545e+01  2.0783899500875766e+01  2.1055854069064328e+01 
 2.1331367126705530e+01  2.1610485236161864e+01  2.1893255569058155e+01  2.2179725914253719e+01 
 2.2469944685918648e+01  2.2763960931716142e+01  2.3061824341091523e+01  2.3363585253669921e+01 
 2.3669294667763783e+01  2.3979004248991707e+01  2.4292766339010061e+01  2.4610633964358843e+01 
 2.4932660845423289e+01  2.5258901405512759e+01  2.5589410780058387e+01  2.5924244825931122e+01 
 2.6263460130881644e+01  2.6607114023103865e+01  2.6955264580923494e+01  2.7307970642613437e+01 
 2.7665291816337596e+01  2.8027288490224834e+01  2.8394021842574528e+01  2.8765553852196138e+01 
 2.9141947308883566e+01  2.9523265824026854e+01  2.9909573841362626e+01  3.0300936647865271e+01 
 3.0697420384780568e+01  3.1099092058803720e+01  3.1506019553403657e+01  3.1918271640295494e+01 
 3.2335917991063120e+01  3.2759029188933837e+01  3.3187676740707154e+01  3.3621933088839526e+01 
 3.4061871623687367e+01  3.4507566695910157e+01  3.4959093629035905e+01  3.5416528732191047e+01 
 3.5879949312996644e+01  3.6349433690633866e+01  3.6825061209079998e+01  3.7306912250517655e+01 
 3.7795068248919712e+01  3.8289611703811758e+01  3.8790626194214731e+01  3.9298196392769960e+01 
 3.9812408080049082e+01  4.0333348159051113e+01  4.0861104669889301e+01  4.1395766804670075e+01 
 4.1937424922566770e+01  4.2486170565090504e+01  4.3042096471560939e+01  4.3605296594779418e+01 
 4.4175866116907244e+01  4.4753901465551735e+01  4.5339500330062442e+01  4.5932761678041331e+01 
 4.6533785772068221e+01  4.7142674186645507e+01  4.7759529825364453e+01  4.8384456938296189e+01 
 4.9017561139610194e+01  4.9658949425423323e+01  5.0308730191882447e+01  5.0967013253483650e+01 
 5.1633909861631125e+01  5.2309532723438899e+01  5.2993996020778688e+01  5.3687415429576824e+01 
 5.4389908139363804e+01  5.5101592873079582e+01  5.5822589907138024e+01  5.6553021091754040e+01 
 5.7293009871536135e+01  5.8042681306349408e+01  5.8802162092450665e+01  5.9571580583900364e+01 