  <PP_INFO>

############################################################
#    Opium Parameter File                                  #
############################################################
#-----------------------------------------------------------
#Command line   : opium Be Be.log ae ps nl tc2 ke upf qmcpack rpt 
 
#Opium version  : 4.1 
#Compile Host   : gwang18-OptiPlex-3040 
#Compile OS     : Linux 4.4.0-148-generic x86_64 
#Compile Date   : Thu Jun  6 14:37:41 EDT 2019 
#-----------------------------------------------------------
#Execution Host : gwang18-OptiPlex-3040 
#Execution Date : Tue Jun 18 16:26:59 2019
 
#-----------------------------------------------------------
############################################################
[Atom]
Be  
3
100   2.00  -
200   0.00  -
210   2.00  -

[Pseudo]
2  2.35741 1.70329 
g

[Gaussinfo]
2 2
1 4
2    2.487404    12.663919
1   17.949002     2.000000
3   24.132003    35.898004
2   20.138003   -12.774998
2    4.333171    -2.960014

[XC]
pbe

[KBDesign]
s

[Relativity]
nrl

[Configs]
4

200   2.00  -
210   0.00  -

200   1.00  -
210   1.00  -

200   1.00  -
210   0.00  -

200   0.00  -
210   1.00  -

############################################################
  </PP_INFO>



<PP_HEADER>
   0         Version Number
   Be        Element
   NC        Norm - Conserving pseudopotential
    F      Nonlinear Core Correction
SLA  PW   PBE  PBE     PBE  Exchange-Correlation functional
 2          Z valence
 0          Total energy
 0.000000   0.000000     Suggested cutoff for wfc and rho
 1           Max angular momentum component
 1112           Number of points in mesh
 2  1     Number of Wavefuncitons, Number of Projectors
 Wavefunctions         nl  l   occ
                       S  0  0.000000
                       P  1  2.000000
</PP_HEADER>
<PP_MESH>
  <PP_R>
 6.2996052494743651e-05  6.3820347485828938e-05  6.4655428267537939e-05  6.5501435970510312e-05 
 6.6358513572061469e-05  6.7226805920345985e-05  6.8106459758837339e-05  6.8997623751127900e-05 
 6.9900448506053414e-05  7.0815086603146291e-05  7.1741692618421969e-05  7.2680423150502216e-05 
 7.3631436847081336e-05  7.4594894431737548e-05  7.5570958731095798e-05  7.6559794702345797e-05 
 7.7561569461120198e-05  7.8576452309737571e-05  7.9604614765814853e-05  8.0646230591254235e-05 
 8.1701475821609377e-05  8.2770528795835782e-05  8.3853570186430540e-05  8.4950783029966501e-05 
 8.6062352758025539e-05  8.7188467228537401e-05  8.8329316757527869e-05  8.9485094151282678e-05 
 9.0655994738932235e-05  9.1842216405462715e-05  9.3043959625159064e-05  9.4261427495485704e-05 
 9.5494825771410484e-05  9.6744362900177459e-05  9.8010250056535515e-05  9.9292701178427004e-05 
 1.0059193300314387e-04  1.0190816510395681e-04  1.0324161992722361e-04  1.0459252282998316e-04 
 1.0596110211804127e-04  1.0734758908455513e-04  1.0875221804912181e-04  1.1017522639737961e-04 
 1.1161685462112625e-04  1.1307734635896278e-04  1.1455694843746900e-04  1.1605591091291777e-04 
 1.1757448711353511e-04  1.1911293368231340e-04  1.2067151062038420e-04  1.2225048133095973e-04 
 1.2385011266384814e-04  1.2547067496055200e-04  1.2711244209995655e-04  1.2877569154461590e-04 
 1.3046070438764486e-04  1.3216776540022447e-04  1.3389716307972877e-04  1.3564918969848186e-04 
 1.3742414135315206e-04  1.3922231801479371e-04  1.4104402357954245e-04  1.4288956591997453e-04 
 1.4475925693713810e-04  1.4665341261326507e-04  1.4857235306517299e-04  1.5051640259836562e-04 
 1.5248588976184087e-04  1.5448114740361702e-04  1.5650251272698445e-04  1.5855032734749387e-04 
 1.6062493735069015e-04  1.6272669335060157e-04  1.6485595054899452e-04  1.6701306879540333e-04 
 1.6919841264794586e-04  1.7141235143493448e-04  1.7365525931729373e-04  1.7592751535179375e-04 
 1.7822950355511275e-04  1.8056161296873600e-04  1.8292423772470510e-04  1.8531777711222705e-04 
 1.8774263564515518e-04  1.9019922313035317e-04  1.9268795473695259e-04  1.9520925106651849e-04 
 1.9776353822413155e-04  2.0035124789040084e-04  2.0297281739441896e-04  2.0562868978767169e-04 
 2.0831931391891468e-04  2.1104514451003012e-04  2.1380664223287558e-04  2.1660427378713892e-04 
 2.1943851197921160e-04  2.2230983580209343e-04  2.2521873051634477e-04  2.2816568773209573e-04 
 2.3115120549212979e-04  2.3417578835605428e-04  2.3723994748557197e-04  2.4034420073086897e-04 
 2.4348907271813170e-04  2.4667509493821139e-04  2.4990280583644616e-04  2.5317275090366018e-04 
 2.5648548276835257e-04  2.5984156129009304e-04  2.6324155365413962e-04  2.6668603446729406e-04 
 2.7017558585501207e-04  2.7371079755978360e-04  2.7729226704080120e-04  2.8092059957493082e-04 
 2.8459640835900684e-04  2.8832031461346251e-04  2.9209294768731809e-04  2.9591494516454227e-04 
 2.9978695297180549e-04  3.0370962548764311e-04  3.0768362565304625e-04  3.1170962508350147e-04 
 3.1578830418249490e-04  3.1992035225650187e-04  3.2410646763148161e-04  3.2834735777089580e-04 
 3.3264373939527171e-04  3.3699633860332973e-04  3.4140589099469564e-04  3.4587314179421863e-04 
 3.5039884597791671e-04  3.5498376840056796e-04  3.5962868392497456e-04  3.6433437755291554e-04 
 3.6910164455781401e-04  3.7393129061914039e-04  3.7882413195857410e-04  3.8378099547794716e-04 
 3.8880271889899160e-04  3.9389015090491799e-04  3.9904415128384405e-04  4.0426559107410069e-04 
 4.0955535271144011e-04  4.1491433017816915e-04  4.2034342915423450e-04  4.2584356717028494e-04 
 4.3141567376273608e-04  4.3706069063086415e-04  4.4277957179595593e-04  4.4857328376253904e-04 
 4.5444280568172587e-04  4.6038912951669073e-04  4.6641326021031461e-04  4.7251621585502307e-04 
 4.7869902786484494e-04  4.8496274114972598e-04  4.9130841429211958e-04  4.9773711972589006e-04 
 5.0424994391755676e-04  5.1084798754990918e-04  5.1753236570802508e-04  5.2430420806772284e-04 
 5.3116465908647863e-04  5.3811487819684350e-04  5.4515604000238897e-04  5.5228933447621894e-04 
 5.5951596716207754e-04  5.6683715937808912e-04  5.7425414842316228e-04  5.8176818778609947e-04 
 5.8938054735743707e-04  5.9709251364406133e-04  6.0490538998662891e-04  6.1282049677983746e-04 
 6.2083917169557397e-04  6.2896276990898428e-04  6.3719266432750140e-04  6.4553024582287015e-04 
 6.5397692346620727e-04  6.6253412476613861e-04  6.7120329591005079e-04  6.7998590200850047e-04 
 6.8888342734282177e-04  6.9789737561597328e-04  7.0702927020666712e-04  7.1628065442682460e-04 
 7.2565309178239683e-04  7.3514816623760477e-04  7.4476748248263069e-04  7.5451266620481553e-04 
 7.6438536436340145e-04  7.7438724546787592e-04  7.8451999985995093e-04  7.9478533999923580e-04 
 8.0518500075264657e-04  8.1572073968760265e-04  8.2639433736906025e-04  8.3720759766043175e-04 
 8.4816234802844283e-04  8.5926043985197931e-04  8.7050374873497355e-04  8.8189417482338725e-04 
 8.9343364312633952e-04  9.0512410384143945e-04  9.1696753268437077e-04  9.2896593122279714e-04 
 9.4112132721462893e-04  9.5343577495072065e-04  9.6591135560204766e-04  9.7855017757143381e-04 
 9.9135437684987364e-04  1.0043261173775203e-03  1.0174675914093971e-03  1.0307810198858936e-03 
 1.0442686528081091e-03  1.0579327696181098e-03  1.0717756795841581e-03  1.0857997221909862e-03 
 1.1000072675351727e-03  1.1144007167256964e-03  1.1289825022897282e-03  1.1437550885837358e-03 
 1.1587209722099606e-03  1.1738826824383569e-03  1.1892427816340397e-03  1.2048038656903325e-03 
 1.2205685644674758e-03  1.2365395422370851e-03  1.2527194981324164e-03  1.2691111666045256e-03 
 1.2857173178843985e-03  1.3025407584511253e-03  1.3195843315062033e-03  1.3368509174540443e-03 
 1.3543434343887696e-03  1.3720648385873748e-03  1.3900181250093484e-03  1.4082063278028263e-03 
 1.4266325208173701e-03  1.4452998181234567e-03  1.4642113745387583e-03  1.4833703861613216e-03 
 1.5027800909097112e-03  1.5224437690702279e-03  1.5423647438512797e-03  1.5625463819450196e-03 
 1.5829920940963196e-03  1.6037053356791964e-03  1.6246896072807768e-03  1.6459484552929060e-03 
 1.6674854725114963e-03  1.6893042987437177e-03  1.7114086214231345e-03  1.7338021762328898e-03 
 1.7564887477370455e-03  1.7794721700201818e-03  1.8027563273353676e-03  1.8263451547606089e-03 
 1.8502426388638815e-03  1.8744528183768784e-03  1.8989797848775602e-03  1.9238276834816434e-03 
 1.9490007135431295e-03  1.9745031293640146e-03  2.0003392409132705e-03  2.0265134145552419e-03 
 2.0530300737875711e-03  2.0798936999887802e-03  2.1071088331756360e-03  2.1346800727704211e-03 
 2.1626120783782496e-03  2.1909095705745503e-03  2.2195773317028543e-03  2.2486202066830251e-03 
 2.2780431038300591e-03  2.3078509956836052e-03  2.3380489198483283e-03  2.3686419798452886e-03 
 2.3996353459744394e-03  2.4310342561884267e-03  2.4628440169778046e-03  2.4950700042678585e-03 
 2.5277176643271415e-03  2.5607925146879083e-03  2.5943001450785918e-03  2.6282462183684786e-03 
 2.6626364715247497e-03  2.6974767165820410e-03  2.7327728416246901e-03  2.7685308117818379e-03 
 2.8047566702355479e-03  2.8414565392421197e-03  2.8786366211667647e-03  2.9163031995318232e-03 
 2.9544626400786842e-03  2.9931213918436249e-03  3.0322859882477059e-03  3.0719630482009372e-03 
 3.1121592772208814e-03  3.1528814685659158e-03  3.1941365043833009e-03  3.2359313568722805e-03 
 3.2782730894624010e-03  3.3211688580072479e-03  3.3646259119938017e-03  3.4086515957676171e-03 
 3.4532533497740377e-03  3.4984387118156472e-03  3.5442153183261795e-03  3.5905909056610811e-03 
 3.6375733114049928e-03  3.6851704756963085e-03  3.7333904425690791e-03  3.7822413613124747e-03 
 3.8317314878480320e-03  3.8818691861249271e-03  3.9326629295335022e-03  3.9841213023372891e-03 
 4.0362530011237626e-03  4.0890668362740983e-03  4.1425717334521387e-03  4.1967767351128544e-03 
 4.2516910020305382e-03  4.3073238148470016e-03  4.3636845756400214e-03  4.4207828095123155e-03 
 4.4786281662013124e-03  4.5372304217099618e-03  4.5965994799589266e-03  4.6567453744603571e-03 
 4.7176782700135752e-03  4.7794084644229564e-03  4.8419463902382789e-03  4.9053026165178535e-03 
 4.9694878506147139e-03  5.0345129399861945e-03  5.1003888740271562e-03  5.1671267859272471e-03 
 5.2347379545524221e-03  5.3032338063510980e-03  5.3726259172852580e-03  5.4429260147868079e-03 
 5.5141459797395471e-03  5.5862978484870632e-03  5.6593938148669087e-03  5.7334462322713659e-03 
 5.8084676157352340e-03  5.8844706440508753e-03  5.9614681619109718e-03  6.0394731820793014e-03 
 6.1184988875899330e-03  6.1985586339751864e-03  6.2796659515227506e-03  6.3618345475623412e-03 
 6.4450783087822454e-03  6.5294113035762429e-03  6.6148477844211765e-03  6.7014021902856540e-03 
 6.7890891490702760e-03  6.8779234800797791e-03  6.9679201965275397e-03  7.0590945080728374e-03 
 7.1514618233913330e-03  7.2450377527791465e-03  7.3398381107910712e-03  7.4358789189132440e-03 
 7.5331764082708242e-03  7.6317470223710906e-03  7.7316074198824341e-03  7.8327744774497107e-03 
 7.9352652925464388e-03  8.0390971863643114e-03  8.1442877067405030e-03  8.2508546311233256e-03 
 8.3588159695766415e-03  8.4681899678236052e-03  8.5789951103302422e-03  8.6912501234293650e-03 
 8.8049739784853611e-03  8.9201858951004128e-03  9.0369053443626491e-03  9.1551520521367842e-03 
 9.2749460023978780e-03  9.3963074406086446e-03  9.5192568771409972e-03  9.6438150907423373e-03 
 9.7700031320472249e-03  9.8978423271349827e-03  1.0027354281133848e-02  1.0158560881872307e-02 
 1.0291484303578151e-02  1.0426147010626026e-02  1.0562571761333938e-02  1.0700781611809457e-02 
 1.0840799919846269e-02  1.0982650348871685e-02  1.1126356871945832e-02  1.1271943775813142e-02 
 1.1419435665006894e-02  1.1568857466007382e-02  1.1720234431454625e-02  1.1873592144416075e-02 
 1.2028956522710231e-02  1.2186353823286804e-02  1.2345810646664214e-02  1.2507353941425135e-02 
 1.2671011008770867e-02  1.2836809507135326e-02  1.3004777456859327e-02  1.3174943244926166e-02 
 1.3347335629759037e-02  1.3521983746081288e-02  1.3698917109840256e-02  1.3878165623195535e-02 
 1.4059759579572510e-02  1.4243729668782021e-02  1.4430106982207024e-02  1.4618923018057057e-02 
 1.4810209686691592e-02  1.5003999316012911e-02  1.5200324656929606e-02  1.5399218888891565e-02 
 1.5600715625497377e-02  1.5804848920175110e-02  1.6011653271937425e-02  1.6221163631211993e-02 
 1.6433415405748161e-02  1.6648444466601017e-02  1.6866287154193638e-02  1.7086980284458715e-02 
 1.7310561155060529e-02  1.7537067551698357e-02  1.7766537754492343e-02  1.7999010544452916e-02 
 1.8234525210034901e-02  1.8473121553777304e-02  1.8714839899030108e-02  1.8959721096768981e-02 
 1.9207806532499178e-02  1.9459138133249801e-02  1.9713758374659579e-02  1.9971710288155323e-02 
 2.0233037468224371e-02  2.0497784079782151e-02  2.0765994865636107e-02  2.1037715154047430e-02 
 2.1312990866391587e-02  2.1591868524919143e-02  2.1874395260618143e-02  2.2160618821179368e-02 
 2.2450587579065789e-02  2.2744350539687642e-02  2.3041957349684478e-02  2.3343458305315475e-02 
 2.3648904360959760e-02  2.3958347137727730e-02  2.4271838932185159e-02  2.4589432725191450e-02 
 2.4911182190853528e-02  2.5237141705596884e-02  2.5567366357355327e-02  2.5901911954880986e-02 
 2.6240835037176058e-02  2.6584192883048138e-02  2.6932043520790400e-02  2.7284445737988550e-02 
 2.7641459091456037e-02  2.8003143917299328e-02  2.8369561341114832e-02  2.8740773288319286e-02 
 2.9116842494615314e-02  2.9497832516593808e-02  2.9883807742475298e-02  3.0274833402991624e-02 
 3.0670975582410085e-02  3.1072301229701865e-02  3.1478878169856547e-02  3.1890775115344709e-02 
 3.2308061677730489e-02  3.2730808379436156e-02  3.3159086665660406e-02  3.3592968916452984e-02 
 3.4032528458946956e-02  3.4477839579751209e-02  3.4928977537505027e-02  3.5386018575597027e-02 
 3.5849039935050453e-02  3.6318119867577089e-02  3.6793337648802014e-02  3.7274773591661259e-02 
 3.7762509059975059e-02  3.8256626482198422e-02  3.8757209365351743e-02  3.9264342309133719e-02 
 3.9778111020218873e-02  4.0298602326742199e-02  4.0825904192973314e-02  4.1360105734182674e-02 
 4.1901297231702134e-02  4.2449570148182889e-02  4.3005017143052778e-02  4.3567732088175937e-02 
 4.4137810083717414e-02  4.4715347474215301e-02  4.5300441864863178e-02  4.5893192138005655e-02 
 4.6493698469849735e-02  4.7102062347394676e-02  4.7718386585583791e-02  4.8342775344680247e-02 
 4.8975334147870433e-02  4.9616169899097645e-02  5.0265390901129088e-02  5.0923106873859314e-02 
 5.1589428972853145e-02  5.2264469808131264e-02  5.2948343463201410e-02  5.3641165514339013e-02 
 5.4343053050119702e-02  5.5054124691207587e-02  5.5774500610402428e-02  5.6504302552949130e-02 
 5.7243653857112990e-02  5.7992679475024136e-02  5.8751505993794799e-02  5.9520261656912633e-02 
 6.0299076385914460e-02  6.1088081802343146e-02  6.1887411249991975e-02  6.2697199817440069e-02 
 6.3517584360882715e-02  6.4348703527260354e-02  6.5190697777690237e-02  6.6043709411204771e-02 
 6.6907882588800149e-02  6.7783363357800289e-02  6.8670299676538843e-02  6.9568841439364690e-02 
 7.0479140501974361e-02  7.1401350707076039e-02  7.2335627910389347e-02  7.3282130006985288e-02 
 7.4241016957971043e-02  7.5212450817523424e-02  7.6196595760276889e-02  7.7193618109069093e-02 
 7.8203686363050015e-02  7.9226971226158641e-02  8.0263645635972339e-02  8.1313884792933749e-02 
 8.2377866189960083e-02  8.3455769642439878e-02  8.4547777318621981e-02  8.5654073770402822e-02 
 8.6774845964515845e-02  8.7910283314129409e-02  8.9060577710858027e-02  9.0225923557192569e-02 
 9.1406517799354700e-02  9.2602559960581282e-02  9.3814252174844334e-02  9.5041799221011858e-02 
 9.6285408557456403e-02  9.7545290357115733e-02  9.8821657543012656e-02  1.0011472582423946e-01 
 1.0142471373241328e-01  1.0275184265860851e-01  1.0409633689077237e-01  1.0545842365163022e-01 
 1.0683833313708635e-01  1.0823629855512822e-01  1.0965255616523877e-01  1.1108734531832493e-01 
 1.1254090849716851e-01  1.1401349135740638e-01  1.1550534276904677e-01  1.1701671485852903e-01 
 1.1854786305133358e-01  1.2009904611514910e-01  1.2167052620360541e-01  1.2326256890057775e-01 
 1.2487544326507115e-01  1.2650942187669195e-01  1.2816478088171460e-01  1.2984180003975082e-01 
 1.3154076277102983e-01  1.3326195620429698e-01  1.3500567122533888e-01  1.3677220252614444e-01 
 1.3856184865470797e-01  1.4037491206548477e-01  1.4221169917050649e-01  1.4407252039116564e-01 
 1.4595769021067742e-01  1.4786752722722823e-01  1.4980235420781962e-01  1.5176249814281606e-01 
 1.5374829030120807e-01  1.5576006628659680e-01  1.5779816609391198e-01  1.5986293416687195e-01 
 1.6195471945619536e-01  1.6407387547857477e-01  1.6622076037642172e-01  1.6839573697839397e-01 
 1.7059917286071355e-01  1.7283144040928913e-01  1.7509291688264941e-01  1.7738398447570095e-01 
 1.7970503038431992e-01  1.8205644687078920e-01  1.8443863133009161e-01  1.8685198635707059e-01 
 1.8929691981446969e-01  1.9177384490186244e-01  1.9428318022548391e-01  1.9682534986897626e-01 
 1.9940078346506018e-01  2.0200991626814249e-01  2.0465318922787726e-01  2.0733104906368593e-01 
 2.1004394834025433e-01  2.1279234554401716e-01  2.1557670516064328e-01  2.1839749775353495e-01 
 2.2125520004335417e-01  2.2415029498858946e-01  2.2708327186717722e-01  2.3005462635919072e-01 
 2.3306486063061116e-01  2.3611448341819508e-01  2.3920401011545200e-01  2.4233396285974712e-01 
 2.4550487062054380e-01  2.4871726928880070e-01  2.5197170176753902e-01  2.5526871806359264e-01 
 2.5860887538056321e-01  2.6199273821298730e-01  2.6542087844173740e-01  2.6889387543067156e-01 
 2.7241231612454692e-01  2.7597679514821499e-01  2.7958791490711454e-01  2.8324628568907972e-01 
 2.8695252576747993e-01  2.9070726150570958e-01  2.9451112746304514e-01  2.9836476650188687e-01 
 3.0226882989640447e-01  3.0622397744260360e-01  3.1023087756983325e-01  3.1429020745375169e-01 
 3.1840265313077143e-01  3.2256890961399887e-01  3.2678968101069633e-01  3.3106568064127556e-01 
 3.3539763115985155e-01  3.3978626467637241e-01  3.4423232288034772e-01  3.4873655716619600e-01 
 3.5329972876023213e-01  3.5792260884931631e-01  3.6260597871118644e-01  3.6735062984649608e-01 
 3.7215736411257977e-01  3.7702699385896904e-01  3.8196034206468121e-01  3.8695824247730487e-01 
 3.9202153975390519e-01  3.9715108960377316e-01  4.0234775893304292e-01  4.0761242599119818e-01 
 4.1294598051950299e-01  4.1834932390136698e-01  4.2382336931468217e-01  4.2936904188615216e-01 
 4.3498727884764077e-01  4.4067902969456640e-01  4.4644525634636917e-01  4.5228693330907738e-01 
 4.5820504784000149e-01  4.6420060011458286e-01  4.7027460339542593e-01  4.7642808420354188e-01 
 4.8266208249183318e-01  4.8897765182084801e-01  4.9537585953683472e-01  5.0185778695212557e-01 
 5.0842452952788242e-01  5.1507719705922805e-01  5.2181691386281026e-01  5.2864481896681004e-01 
 5.3556206630344105e-01  5.4256982490396688e-01  5.4966927909627006e-01  5.5686162870500666e-01 
 5.6414808925437887e-01  5.7152989217356209e-01  5.7900828500481916e-01  5.8658453161433777e-01 
 5.9425991240582710e-01  6.0203572453690912e-01  6.0991328213834106e-01  6.1789391653610704e-01 
 6.2597897647641498e-01  6.3416982835363789e-01  6.4246785644123927e-01  6.5087446312571373e-01 
 6.5939106914360057e-01  6.6801911382158730e-01  6.7676005531975991e-01  6.8561537087803603e-01 
 6.9458655706582151e-01  7.0367513003493420e-01  7.1288262577583772e-01  7.2221060037722695e-01 
 7.3166063028901096e-01  7.4123431258873695e-01  7.5093326525149984e-01  7.6075912742338403e-01 
 7.7071355969848310e-01  7.8079824439954404e-01  7.9101488586228386e-01  8.0136521072342637e-01 
 8.1185096821250924e-01  8.2247393044750250e-01  8.3323589273430887e-01  8.4413867387016939e-01 
 8.5518411645104564e-01  8.6637408718302311e-01  8.7771047719778861e-01  8.8919520237223637e-01 
 9.0083020365225563e-01  9.1261744738075523e-01  9.2455892562997999e-01  9.3665665653817576e-01 
 9.4891268465066003e-01  9.6132908126535421e-01  9.7390794478283849e-01  9.8665140106098626e-01 
 9.9956160377423897e-01  1.0126407347775830e+00  1.0258910044752889e+00  1.0393146521944694e+00 
 1.0529139465635402e+00  1.0666911858956172e+00  1.0806486985769388e+00  1.0947888434603683e+00 
 1.1091140102640460e+00  1.1236266199752569e+00  1.1383291252595837e+00  1.1532240108754128e+00 
 1.1683137940938646e+00  1.1836010251242182e+00  1.1990882875449025e+00  1.2147781987401280e+00 
 1.2306734103422305e+00  1.2467766086798024e+00  1.2630905152316902e+00  1.2796178870869297e+00 
 1.2963615174107037e+00  1.3133242359163835e+00  1.3305089093437719e+00  1.3479184419435795e+00 
 1.3655557759682517e+00  1.3834238921692172e+00  1.4015258103006423e+00  1.4198645896297752e+00 
 1.4384433294539705e+00  1.4572651696244778e+00  1.4763332910770837e+00  1.4956509163696978e+00 
 1.5152213102269720e+00  1.5350477800920481e+00  1.5551336766855219e+00  1.5754823945717242e+00 
 1.5960973727324095e+00  1.6169820951479528e+00  1.6381400913861528e+00  1.6595749371987261e+00 
 1.6812902551256350e+00  1.7032897151072934e+00  1.7255770351047992e+00  1.7481559817282781e+00 
 1.7710303708734494e+00  1.7942040683665219e+00  1.8176809906175277e+00  1.8414651052822044e+00 
 1.8655604319325390e+00  1.8899710427360843e+00  1.9147010631441659e+00  1.9397546725890926e+00 
 1.9651361051904908e+00  1.9908496504708801e+00  2.0168996540806137e+00  2.0432905185323036e+00 
 2.0700267039448579e+00  2.0971127287972391e+00  2.1245531706921179e+00  2.1523526671294864e+00 
 2.1805159162904069e+00  2.2090476778310193e+00  2.2379527736869322e+00  2.2672360888881427e+00 
 2.2969025723846164e+00  2.3269572378826733e+00  2.3574051646923158e+00  2.3882514985856433e+00 
 2.4195014526665020e+00  2.4511603082515081e+00  2.4832334157626081e+00  2.5157261956313071e+00 
 2.5486441392147401e+00  2.5819928097237197e+00  2.6157778431629399e+00  2.6500049492834541e+00 
 2.6846799125476659e+00  2.7198085931068956e+00  2.7553969277917685e+00  2.7914509311155489e+00 
 2.8279766962906114e+00  2.8649803962582050e+00  2.9024682847316972e+00  2.9404466972534640e+00 
 2.9789220522656139e+00  3.0179008521947197e+00  3.0573896845507424e+00  3.0973952230403374e+00 
 3.1379242286947262e+00  3.1789835510123279e+00  3.2205801291163390e+00  3.2627209929274632e+00 
 3.3054132643519893e+00  3.3486641584853887e+00  3.3924809848317166e+00  3.4368711485389141e+00 
 3.4818421516503002e+00  3.5274015943724364e+00  3.5735571763595790e+00  3.6203166980149377e+00 
 3.6676880618089651e+00  3.7156792736148905e+00  3.7642984440617329e+00  3.8135537899050163e+00 
 3.8634536354154205e+00  3.9140064137856037e+00  3.9652206685554301e+00  4.0171050550558514e+00 
 4.0696683418716759e+00  4.1229194123234807e+00  4.1768672659689230e+00  4.2315210201236546e+00 
 4.2868899114022163e+00  4.3429832972790177e+00  4.3998106576697795e+00  4.4573815965336632e+00 
 4.5157058434963604e+00  4.5747932554944244e+00  4.6346538184411186e+00  4.6952976489140532e+00 
 4.7567349958649165e+00  4.8189762423515710e+00  4.8820319072928120e+00  4.9459126472460948e+00 
 5.0106292582085112e+00  5.0761926774413482e+00  5.1426139853185022e+00  5.2099044071990939e+00 
 5.2780753153245881e+00  5.3471382307406925e+00  5.4171048252444987e+00  5.4879869233570044e+00 
 5.5597965043214979e+00  5.6325457041280744e+00  5.7062468175646526e+00  5.7809123002948191e+00 
 5.8565547709628651e+00  5.9331870133263713e+00  6.0108219784166881e+00  6.0894727867276961e+00 
 6.1691527304331943e+00  6.2498752756333165e+00  6.3316540646303290e+00  6.4145029182342128e+00 
 6.4984358380984153e+00  6.5834670090861627e+00  6.6696108016677460e+00  6.7568817743491181e+00 
 6.8452946761323874e+00  6.9348644490083871e+00  7.0256062304819169e+00  7.1175353561300208e+00 
 7.2106673621937336e+00  7.3050179882037432e+00  7.4006031796404086e+00  7.4974390906285837e+00 
 7.5955420866677068e+00  7.6949287473976007e+00  7.7956158694004802e+00  7.8976204690396079e+00 
 8.0009597853351035e+00  8.1056512828773801e+00  8.2117126547786974e+00  8.3191618256633415e+00 
 8.4280169546969486e+00  8.5382964386553795e+00  8.6500189150339164e+00  8.7632032651969745e+00 
 8.8778686175691224e+00  8.9940343508678247e+00  9.1117200973784964e+00  9.2309457462724005e+00 
 9.3517314469679693e+00  9.4740976125361005e+00  9.5980649231500195e+00  9.7236543295802722e+00 
 9.8508870567354645e+00  9.9797846072493073e+00  1.0110368765114629e+01  1.0242661599364910e+01 
 1.0376685467804009e+01  1.0512463020784683e+01  1.0650017205036567e+01  1.0789371267544155e+01 
 1.0930548759475705e+01  1.1073573540163370e+01  1.1218469781135498e+01  1.1365261970201683e+01 
 1.1513974915591254e+01  1.1664633750145935e+01  1.1817263935567347e+01  1.1971891266720100e+01 
 1.2128541875991189e+01  1.2287242237706424e+01  1.2448019172604656e+01  1.2610899852370547e+01 
 1.2775911804226652e+01  1.2943082915585576e+01  1.3112441438763025e+01  1.3284015995752503e+01 
 1.3457835583062529e+01  1.3633929576617021e+01  1.3812327736720032e+01  1.3993060213085226e+01 
 1.4176157549931268e+01  1.4361650691143874e+01  1.4549570985505401e+01  1.4739950191992866e+01 
 1.4932820485145285e+01  1.5128214460501251e+01  1.5326165140107655e+01  1.5526705978100493e+01 
 1.5729870866358691e+01  1.5935694140231920e+01  1.6144210584343341e+01  1.6355455438468301e+01 
 1.6569464403489924e+01  1.6786273647432669e+01  1.7005919811574813e+01  1.7228440016640818e+01 
 1.7453871869074991e+01  1.7682253467396940e+01  1.7913623408640351e+01  1.8148020794875983e+01 
 1.8385485239819989e+01  1.8626056875528761e+01  1.8869776359181316e+01  1.9116684879950462e+01 
 1.9366824165963884e+01  1.9620236491356266e+01  1.9876964683413746e+01  2.0137052129811824e+01 
 2.0400542785947973e+01  2.0667481182370214e+01  2.0937912432302877e+01  2.1211882239270857e+01 
 2.1489436904823641e+01  2.1770623336360245e+01  2.2055489055056885e+01  2.2344082203898022e+01 
 2.2636451555812698e+01  2.2932646521917253e+01  2.3232717159865924e+01  2.3536714182310732e+01 
 2.3844688965472002e+01  2.4156693557821107e+01  2.4472780688876750e+01  2.4793003778116400e+01 
 2.5117416944004297e+01  2.5446075013137612e+01  2.5779033529512272e+01  2.6116348763910008e+01 
 2.6458077723408284e+01  2.6804278161014601e+01  2.7155008585426952e+01  2.7510328270921740e+01 
 2.7870297267371555e+01  2.8234976410393561e+01  2.8604427331630898e+01  2.8978712469168585e+01 
 2.9357895078085701e+01  2.9742039241145644e+01  3.0131209879626272e+01  3.0525472764291749e+01 
 3.0924894526507970e+01  3.1329542669503414e+01  3.1739485579777345e+01  3.2154792538657304e+01 
 3.2575533734007813e+01  3.3001780272092290e+01  3.3433604189590177e+01  3.3871078465771326e+01 
 3.4314277034829686e+01  3.4763274798378177e+01  3.5218147638107546e+01  3.5678972428610358e+01 
 3.6145827050373008e+01  3.6618790402937734e+01  3.7097942418236826e+01  3.7583364074101290e+01 
 3.8075137407946315e+01  3.8573345530635798e+01  3.9078072640528248e+01  3.9589404037706544e+01 
 4.0107426138393826e+01  4.0632226489558050e+01  4.1163893783707636e+01  4.1702517873880716e+01 
 4.2248189788830516e+01  4.2801001748409476e+01  4.3361047179154369e+01  4.3928420730076027e+01 
 4.4503218288654956e+01  4.5085536997046638e+01  4.5675475268498758e+01  4.6273132803983302e+01 
 4.6878610609046255e+01  4.7492011010877761e+01  4.8113437675605688e+01  4.8742995625815425e+01 
 4.9380791258298977e+01  5.0026932362036234e+01  5.0681528136411622e+01  5.1344689209668999e+01 
 5.2016527657608137e+01  5.2697157022525779e+01  5.3386692332404557e+01  5.4085250120353102e+01 
 5.4792948444300016e+01  5.5509906906946540e+01  5.6236246675979288e+01  5.6972090504547978e+01 
 5.7717562752011027e+01  5.8472789404952543e+01  5.9237898098474396e+01  6.0013018137766821e+01 
 6.0798280519961317e+01  6.1593817956269469e+01  6.2399764894411483e+01  6.3216257541338123e+01 
 6.4043433886250057e+01  6.4881433723918349e+01  6.5730398678310067e+01  6.6590472226523119e+01 
 6.7461799723034218e+01  6.8344528424264254e+01  6.9238807513464451e+01  7.0144788125929480e+01 
 7.1062623374539172e+01  7.1992468375635084e+01  7.2934480275235515e+01  7.3888818275593593e+01 
 7.4855643662102764e+01  7.5835119830554504e+01  7.6827412314752536e+01  7.7832688814488435e+01 
 7.8851119223883316e+01  7.9882875660100325e+01  8.0928132492432852e+01  8.1987066371773381e+01 
 8.3059856260467910e+01  8.4146683462560929e+01  8.5247731654436379e+01  8.6363186915859430e+01 
 8.7493237761423842e+01  8.8638075172412314e+01  8.9797892629072109e+01  9.0972886143313900e+01 
 9.2163254291838172e+01  9.3369198249695231e+01  9.4590921824284209e+01  9.5828631489797033e+01 
 9.7082536422113051e+01  9.8352848534150226e+01  9.9639782511678973e+01  1.0094355584960452e+02 
 1.0226438888872407e+02  1.0360250485296496e+02  1.0495812988710998e+02  1.0633149309501643e+02 
 1.0772282657833516e+02  1.0913236547573659e+02  1.1056034800264881e+02  1.1200701549151779e+02 
 1.1347261243259238e+02  1.1495738651524387e+02  1.1646158866982614e+02  1.1798547311008346e+02 
  </PP_R>
  <PP_RAB>
 8.1894868243166747e-07  8.2966451731577611e-07  8.4052056747799319e-07  8.5151866761663403e-07 
 8.6266067643679910e-07  8.7394847696449777e-07  8.8538397686488536e-07  8.9696910876466271e-07 
 9.0870583057869434e-07  9.2059612584090175e-07  9.3264200403948559e-07  9.4484550095652871e-07 
 9.5720867901205725e-07  9.6973362761258811e-07  9.8242246350424524e-07  9.9527733113049523e-07 
 1.0083004029945625e-06  1.0214938800265883e-06  1.0348599919555930e-06  1.0484009976863050e-06 
 1.0621191856809219e-06  1.0760168743458651e-06  1.0900964124235970e-06  1.1043601793895645e-06 
 1.1188105858543320e-06  1.1334500739709861e-06  1.1482811178478623e-06  1.1633062239666748e-06 
 1.1785279316061190e-06  1.1939488132710152e-06  1.2095714751270679e-06  1.2253985574413140e-06 
 1.2414327350283362e-06  1.2576767177023070e-06  1.2741332507349617e-06  1.2908051153195510e-06 
 1.3076951290408702e-06  1.3248061463514385e-06  1.3421410590539069e-06  1.3597027967897810e-06 
 1.3774943275345365e-06  1.3955186580992167e-06  1.4137788346385834e-06  1.4322779431659350e-06 
 1.4510191100746412e-06  1.4700055026665160e-06  1.4892403296870970e-06  1.5087268418679309e-06 