  <PP_INFO>

############################################################
#    Opium Parameter File                                  #
############################################################
#-----------------------------------------------------------
#Command line   : opium In In.log ae ps nl tc2 ke upf qmcpack rpt 
 
#Opium version  : 4.1 
#Compile Host   : py-garuda.cos.ncsu.edu 
#Compile OS     : Linux 5.15.0-113-generic x86_64 
#Compile Date   : Sat Jul 13 02:11:52 EDT 2024 
#-----------------------------------------------------------
#Execution Host : py-garuda.cos.ncsu.edu 
#Execution Date : Mon Jun 23 22:30:09 2025
 
#-----------------------------------------------------------
############################################################
[Atom]
In
11            
100   2.00  -
200   2.00  -
210   6.00  -
300   2.00  -
310   6.00  -
320  10.00  -
400   2.00  -
410   6.00  -
420  10.00  -
500   2.00  -
510   1.00  -

[Pseudo]
5 -1 -1 -1 -1 -1
g

[Gaussinfo]
21 4
2 2 2 4
2 13.66824338 270.03499105
2 7.552828600 38.85331254
2 12.66415088 193.82536999
2 6.802069130 31.85902736
2 10.61466016 79.19274641
2 4.898781990 12.85161376
1 10.99316781 21.00000000
3 10.71264611 230.85652399
2 11.56072298 -164.38395787
2 11.75024739 -29.36492043

[KBdesign]
s

[Relativity]
srl

[XC]
pbe

[Configs]
6

400   2.00  -
410   6.00  -
420  10.00  -
500   2.00  -
510   1.00  -

400   2.00  -
410   6.00  -
420  10.00  -
500   1.00  -
510   2.00  -

400   2.00  -
410   6.00  -
420  10.00  -
500   1.00  -
510   1.00  -

400   2.00  -
410   6.00  -
420  10.00  -
500   1.00  -
510   0.00  -

400   2.00  -
410   6.00  -
420   9.00  -
500   2.00  -
510   1.00  -

400   2.00  -
410   6.00  -
420   9.00  -
500   0.00  -
510   3.00  -
############################################################
  </PP_INFO>



<PP_HEADER>
   0         Version Number
   In        Element
   NC        Norm - Conserving pseudopotential
    F      Nonlinear Core Correction
SLA  PW   PBE  PBE     PBE  Exchange-Correlation functional
 21          Z valence
 0          Total energy
 0.000000   0.000000     Suggested cutoff for wfc and rho
 2           Max angular momentum component
 1176           Number of points in mesh
 3  2     Number of Wavefuncitons, Number of Projectors
 Wavefunctions         nl  l   occ
                      4S  0  2.000000
                      4P  1  6.000000
                      4D  2  10.000000
</PP_HEADER>
<PP_MESH>
  <PP_R>
 2.7327588325319835e-05  2.7685166193820113e-05  2.8047422921300514e-05  2.8414419730010205e-05 
 2.8786218643283327e-05  2.9162882496021178e-05  2.9544474945311314e-05  2.9931060481185912e-05 
 3.0322704437520653e-05  3.0719473003076304e-05  3.1121433232684789e-05  3.1528653058581625e-05 
 3.1941201301886609e-05  3.2359147684234748e-05  3.2782562839559463e-05  3.3211518326029705e-05 
 3.3646086638143677e-05  3.4086341218980431e-05  3.4532356472611975e-05  3.4984207776677749e-05 
 3.5441971495123580e-05  3.5905724991107400e-05  3.6375546640073826e-05  3.6851515842999775e-05 
 3.7333713039813327e-05  3.7822219722988459e-05  3.8317118451317317e-05  3.8818492863862895e-05 
 3.9326427694094234e-05  3.9841008784206578e-05  4.0362323099628911e-05  4.0890458743721310e-05 
 4.1425504972664687e-05  4.1967552210545113e-05  4.2516692064635956e-05  4.3073017340879572e-05 
 4.3636622059571727e-05  4.4207601471251343e-05  4.4786052072797972e-05  4.5372071623740025e-05 
 4.5965759162776464e-05  4.6567215024514324e-05  4.7176540856425805e-05  4.7793839636026743e-05 
 4.8419215688280142e-05  4.9052774703227273e-05  4.9694623753849599e-05  5.0344871314164338e-05 
 5.1003627277556828e-05  5.1671002975352807e-05  5.2347111195633639e-05  5.3032066202297682e-05 
 5.3725983754371358e-05  5.4428981125572565e-05  5.5141177124130229e-05  5.5862692112863218e-05 
 5.6593648029521888e-05  5.7334168407395895e-05  5.8084378396191674e-05  5.8844404783182804e-05 
 5.9614376014637669e-05  6.0394422217526984e-05  6.1184675221515625e-05  6.1985268581242150e-05 
 6.2796337598889856e-05  6.3618019347053121e-05  6.4450452691903069e-05  6.5293778316656269e-05 
 6.6148138745350554e-05  6.7013678366931710e-05  6.7890543459655914e-05  6.8778882215810873e-05 
 6.9678844766760687e-05  7.0590583208318471e-05  7.1514251626450884e-05  7.2450006123319001e-05 
 7.3398004843660050e-05  7.4358408001513958e-05  7.5331377907300330e-05  7.6317078995249017e-05 
 7.7315677851189920e-05  7.8327343240706471e-05  7.9352246137657343e-05  8.0390559753071512e-05 
 8.1442459564421264e-05  8.2508123345278317e-05  8.3587731195358057e-05  8.4681465570956771e-05 
 8.5789511315786980e-05  8.6912055692216894e-05  8.8049288412917867e-05  8.9201401672926489e-05 
 9.0368590182125772e-05  9.1551051198151829e-05  9.2748984559730822e-05  9.3962592720451868e-05 
 9.5192080782982753e-05  9.6437656533732312e-05  9.7699530477967029e-05  9.8977915875386841e-05 
 1.0027302877616661e-04  1.0158508805746907e-04  1.0291431546043558e-04  1.0426093562766093e-04 
 1.0562517614115844e-04  1.0700726756082206e-04  1.0840744346339103e-04  1.0982594048192551e-04 
 1.1126299834579779e-04  1.1271885992120720e-04  1.1419377125222510e-04  1.1568798160237683e-04 
 1.1720174349676808e-04  1.1873531276476163e-04  1.2028894858321400e-04  1.2186291352027624e-04 
 1.2345747357976893e-04  1.2507289824613735e-04  1.2670946052999497e-04  1.2836743701426288e-04 
 1.3004710790091316e-04  1.3174875705832339e-04  1.3347267206925126e-04  1.3521914427943682e-04 
 1.3698846884684015e-04  1.3878094479152436e-04  1.4059687504619045e-04  1.4243656650737350e-04 
 1.4430033008730911e-04  1.4618848076647823e-04  1.4810133764683970e-04  1.5003922400575891e-04 
 1.5200246735064293e-04  1.5399139947428980e-04  1.5600635651096226e-04  1.5804767899319530e-04 
 1.6011571190934691e-04  1.6221080476190214e-04  1.6433331162653950e-04  1.6648359121197094e-04 
 1.6866200692056425e-04  1.7086892690975920e-04  1.7310472415428627e-04  1.7536977650920146e-04 
 1.7766446677374372e-04  1.7998918275602936e-04  1.8234431733859244e-04  1.8473026854478288e-04 
 1.8714743960603341e-04  1.8959623903000626e-04  1.9207708066963251e-04  1.9459038379305400e-04 
 1.9713657315448044e-04  1.9971607906597413e-04  2.0232933747017353e-04  2.0497679001396882e-04 
 2.0765888412314101e-04  2.1037607307797826e-04  2.1312881608988112e-04  2.1591757837897035e-04 
 2.1874283125271056e-04  2.2160505218556136e-04  2.2450472489967299e-04  2.2744233944663563e-04 
 2.3041839229029972e-04  2.3343338639067874e-04  2.3648783128895183e-04  2.3958224319357670e-04 
 2.4271714506753016e-04  2.4589306671669034e-04  2.4911054487937489e-04  2.5237012331705131e-04 
 2.5567235290623356e-04  2.5901779173158188e-04  2.6240700518022033e-04  2.6584056603728821e-04 
 2.6931905458274269e-04  2.7284305868942706e-04  2.7641317392242305e-04  2.8003000363970178e-04 
 2.8369415909409415e-04  2.8740625953659288e-04  2.9116693232100836e-04  2.9497681300999127e-04 
 2.9883654548244618e-04  3.0274678204234755e-04  3.0670818352898069e-04  3.1072141942862537e-04 
 3.1478716798770048e-04  3.1890611632738949e-04  3.2307896055976527e-04  3.2730640590543478e-04 
 3.3158916681272317e-04  3.3592796707841726e-04  3.4032353997008862e-04  3.4477662835001794e-04 
 3.4928798480074046e-04  3.5385837175223314e-04  3.5848856161076908e-04  3.6317933688945474e-04 
 3.6793149034047699e-04  3.7274582508907899e-04  3.7762315476929205e-04  3.8256430366144089e-04 
 3.8757010683144853e-04  3.9264141027196527e-04  3.9777907104534226e-04  4.0298395742847866e-04 
 4.0825694905956121e-04  4.1359893708672608e-04  4.1901082431866393e-04  4.2449352537719787e-04 
 4.3004796685185625e-04  4.3567508745646834e-04  4.4137583818780961e-04  4.4715118248632170e-04 
 4.5300209639893699e-04  4.5892956874403251e-04  4.6493460127854271e-04  4.7101820886725815e-04 
 4.7718141965434109e-04  4.8342527523708356e-04  4.8975083084193990e-04  4.9615915550286322e-04 
 5.0265133224197309e-04  5.0922845825259063e-04  5.1589164508466590e-04  5.2264201883263264e-04 
 5.2948072032572044e-04  5.3640890532075862e-04  5.4342774469750112e-04  5.5053842465650814e-04 
 5.5774214691961706e-04  5.6504012893303531e-04  5.7243360407309353e-04  5.7992382185468737e-04 
 5.8751204814244977e-04  5.9519956536468349e-04  6.0298767273009638e-04  6.1087768644736966e-04 
 6.1887093994760054e-04  6.2696878410965545e-04  6.3517258748847110e-04  6.4348373654634446e-04 
 6.5190363588724760e-04  6.6043370849420979e-04  6.6907539596980337e-04  6.7783015877978005e-04 
 6.8669947649989177e-04  6.9568484806594312e-04  7.0478779202711513e-04  7.1400984680260269e-04 
 7.2335257094161237e-04  7.3281754338676015e-04  7.4240636374091741e-04  7.5212065253754548e-04 
 7.6196205151457237e-04  7.7193222389184844e-04  7.8203285465223570e-04  7.9226565082637338e-04 
 8.0263234178116940e-04  8.1313467951206887e-04  8.2377443893914511e-04  8.3455341820706525e-04 
 8.4547343898898006e-04  8.5653634679439255e-04  8.6774401128105253e-04  8.7909832657093374e-04 
 8.9060121157034499e-04  9.0225461029422814e-04  9.1406049219470433e-04  9.2602085249391384e-04 
 9.3813771252121436e-04  9.5041312005478913e-04  9.6284914966772840e-04  9.7544790307863558e-04 
 9.8821150950682336e-04  1.0011421260321574e-03  1.0142419379596053e-03  1.0275131591885624e-03 
 1.0409580325870030e-03  1.0545788303705323e-03  1.0683778544863932e-03  1.0823574370025051e-03 
 1.0965199405015857e-03  1.1108677584804347e-03  1.1254033157544403e-03  1.1401290688673764e-03 
 1.1550475065065686e-03  1.1701611499234852e-03  1.1854725533598362e-03  1.2009843044792437e-03 
 1.2166990248045672e-03  1.2326193701609439e-03  1.2487480311246313e-03  1.2650877334777204e-03 
 1.2816412386687979e-03  1.2984113442796404e-03  1.3154008844980108e-03  1.3326127305966437e-03 
 1.3500497914184938e-03  1.3677150138683425e-03  1.3856113834108293e-03  1.4037419245750014e-03 
 1.4221097014654690e-03  1.4407178182802422e-03  1.4595694198353529e-03  1.4786676920963315e-03 
 1.4980158627166471e-03  1.5176172015831844e-03  1.5374750213688663e-03  1.5575926780924975e-03 
 1.5779735716859478e-03  1.5986211465687425e-03  1.6195388922301804e-03  1.6407303438190643e-03 
 1.6621990827411506e-03  1.6839487372644151e-03  1.7059829831322379e-03  1.7283055441846161e-03 
 1.7509201929874945e-03  1.7738307514703468e-03  1.7970410915720870e-03  1.8205551358954342e-03 
 1.8443768583698450e-03  1.8685102849231158e-03  1.8929594941617738e-03  1.9177286180603720e-03 
 1.9428218426598034e-03  1.9682434087747469e-03  1.9939976127103828e-03  2.0200888069884741e-03 
 2.0465214010829532e-03  2.0732998621651342e-03  2.1004287158586754e-03  2.1279125470044201e-03 
 2.1557560004352469e-03  2.1839637817610562e-03  2.2125406581640266e-03  2.2414914592042874e-03 
 2.2708210776361207e-03  2.3005344702348475e-03  2.3306366586345393e-03  2.3611327301766810e-03 
 2.3920278387699464e-03  2.4233272057612222e-03  2.4550361208180264e-03  2.4871599428224703e-03 
 2.5197041007769330e-03  2.5526740947215657e-03  2.5860754966638183e-03  2.6199139515201172e-03 
 2.6541951780698703e-03  2.6889249699219597e-03  2.7241091964938673e-03  2.7597538040036282e-03 
 2.7958648164747436e-03  2.8324483367542729e-03  2.8695105475442144e-03  2.9070577124464033e-03 
 2.9450961770210744e-03  2.9836323698592760e-03  3.0226728036693170e-03  3.0622240763774327e-03 
 3.1022928722428478e-03  3.1428859629874261e-03  3.1840102089401227e-03  3.2256725601963821e-03 
 3.2678800577927276e-03  3.3106398348967101e-03  3.3539591180124341e-03  3.3978452282018489e-03 
 3.4423055823220305e-03  3.4873476942786476e-03  3.5329791762958194e-03  3.5792077402026180e-03 
 3.6260411987363707e-03  3.6734874668630396e-03  3.7215545631148631e-03  3.7702506109455135e-03 
 3.8195838401029747e-03  3.8695625880203919e-03  3.9201953012251217e-03  3.9714905367661995e-03 
 4.0234569636605219e-03  4.0761033643579199e-03  4.1294386362254144e-03  4.1834717930508952e-03 
 4.2382119665664679e-03  4.2936684079917459e-03  4.3498504895973207e-03  4.4067677062887061e-03 
 4.4644296772109841e-03  4.5228461473744846e-03  4.5820269893017034e-03  4.6419822046957814e-03 
 4.7027219261308196e-03  4.7642564187643068e-03  4.8265960820719567e-03  4.8897514516052423e-03 
 4.9537332007719356e-03  5.0185521426399180e-03  5.0842192317646475e-03  5.1507455660404784e-03 
 5.2181423885762418e-03  5.2864210895953601e-03  5.3555932083608126e-03  5.4256704351253078e-03 
 5.4966646131069602e-03  5.5685877404908256e-03  5.6414519724566061e-03  5.7152696232329351e-03 
 5.7900531681784840e-03  5.8658152458903410e-03  5.9425686603399629e-03  6.0203263830370694e-03 
 6.0991015552218676e-03  6.1789074900859510e-03  6.2597576750222624e-03  6.3416657739044750e-03 
 6.4246456293962561e-03  6.5087112652906830e-03  6.5938768888803073e-03  6.6801568933582160e-03 
 6.7675658602505216e-03  6.8561185618806718e-03  6.9458299638660058e-03  7.0367152276469861e-03 
 7.1287897130494953e-03  7.2220689808807186e-03  7.3165687955589346e-03  7.4123051277777416e-03 
 7.5092941572051453e-03  7.6075522752179648e-03  7.7070960876720052e-03  7.8079424177084971e-03 
 7.9101083085972457e-03  8.0136110266169642e-03  8.1184680639733511e-03  8.2246971417552876e-03 
 8.3323162129297565e-03  8.4413434653759292e-03  8.5517973249589641e-03  8.6636964586440223e-03 
 8.7770597776510254e-03  8.8919064406507119e-03  9.0082558570024583e-03  9.1261276900345602e-03 
 9.2455418603673428e-03  9.3665185492798116e-03  9.4890782021203289e-03  9.6132415317619277e-03 
 9.7390295221028416e-03  9.8664634316128208e-03  9.9955647969258900e-03  1.0126355436480043e-02 
 1.0258857454204665e-02  1.0393093243256123e-02  1.0529085489802257e-02  1.0666857176856410e-02 
 1.0806431588161601e-02  1.0947832312125549e-02  1.1091083245807142e-02  1.1236208598955140e-02 
 1.1383232898099614e-02  1.1532180990697060e-02  1.1683078049329644e-02  1.1835949575959417e-02 
 1.1990821406238236e-02  1.2147719713874022e-02  1.2306671015054203e-02  1.2467702172926993e-02 
 1.2630840402141357e-02  1.2796113273446295e-02  1.2963548718350430e-02  1.3133175033842467e-02 
 1.3305020887173453e-02  1.3479115320701607e-02  1.3655487756800557e-02  1.3834168002831788e-02 
 1.4015186256182158e-02  1.4198573109367334e-02  1.4384359555201957e-02  1.4572576992037576e-02 
 1.4763257229068993e-02  1.4956432491710102e-02  1.5152135427040067e-02  1.5350399109320751e-02 
 1.5551257045586344e-02  1.5754743181306138e-02  1.5960891906121398e-02  1.6169738059657247e-02 
 1.6381316937410718e-02  1.6595664296715731e-02  1.6812816362786174e-02  1.7032809834838059e-02 
 1.7255681892291767e-02  1.7481470201055463e-02  1.7710212919890729e-02  1.7941948706861492e-02 
 1.8176716725867272e-02  1.8414556653262068e-02  1.8655508684559691e-02  1.8899613541226920e-02 
 1.9146912477565527e-02  1.9397447287684343e-02  1.9651260312562580e-02  1.9908394447205543e-02 
 2.0168893147894003e-02  2.0432800439528359e-02  2.0700160923069037e-02  2.0971019783074096e-02 
 2.1245422795335554e-02  2.1523416334615585e-02  2.1805047382483976e-02  2.2090363535258131e-02 
 2.2379413012046948e-02  2.2672244662899983e-02  2.2968907977063167e-02  2.3269453091342700e-02 
 2.3573930798578221e-02  2.3882392556226935e-02  2.4194890495060052e-02  2.4511477427973018e-02 
 2.4832206858911000e-02  2.5157132991911191e-02  2.5486310740263449e-02  2.5819795735790674e-02 
 2.6157644338250859e-02  2.6499913644861931e-02  2.6846661499951345e-02  2.7197946504731899e-02 
 2.7553828027205497e-02  2.7914366212196472e-02  2.8279621991516200e-02  2.8649657094260750e-02 
 2.9024534057243166e-02  2.9404316235562451e-02  2.9789067813310671e-02  3.0178853814420196e-02 
 3.0573740113652950e-02  3.0973793447733374e-02  3.1379081426627091e-02  3.1789672544967153e-02 
 3.2205636193629837e-02  3.2627042671461749e-02  3.3053963197160655e-02  3.3486469921311511e-02 
 3.3924635938580111e-02  3.4368535300066248e-02  3.4818243025818527e-02  3.5273835117512961e-02 
 3.5735388571297391e-02  3.6202981390804086e-02  3.6676692600332392e-02  3.7156602258204233e-02 
 3.7642791470294014e-02  3.8135342403735770e-02  3.8634338300809548e-02  3.9139863493009630e-02 
 3.9652003415296698e-02  4.0170844620536550e-02  4.0696474794127808e-02  4.1228982768820782e-02 
 4.1768458539730650e-02  4.2314993279546714e-02  4.2868679353940793e-02  4.3429610337177293e-02 
 4.3997881027927448e-02  4.4573587465290540e-02  4.5156826945024708e-02  4.5747698035990256e-02 
 4.6346300596807784e-02  4.6952735792734852e-02  4.7567106112762957e-02  4.8189515386938421e-02 
 4.8820068803909981e-02  4.9458872928705891e-02  5.0106035720743659e-02  5.0761666552075452e-02 
 5.1425876225872261e-02  5.2098776995149761e-02  5.2780482581739556e-02  5.3471108195508335e-02 
 5.4170770553828559e-02  5.4879587901304060e-02  5.5597680029753606e-02  5.6325168298456033e-02 
 5.7062175654660256e-02  5.7808826654363661e-02  5.8565247483362205e-02  5.9331565978576389e-02 
 6.0107911649655822e-02  6.0894415700866691e-02  6.1691211053265603e-02  6.2498432367163570e-02 
 6.3316216064883898e-02  6.4144700353817918e-02  6.4984025249782390e-02  6.5834332600682263e-02 
 6.6695766110483751e-02  6.7568471363500276e-02  6.8452595848996739e-02  6.9348288986115475e-02 
 7.0255702149128504e-02  7.1174988693020094e-02  7.2106303979404179e-02  7.3049805402780818e-02 
 7.4005652417136067e-02  7.4974006562890425e-02  7.5955031494199299e-02  7.6948893006611022e-02 
 7.7955759065086658e-02  7.8975799832386548e-02  8.0009187697828166e-02  8.1056097306420313e-02 
 8.2116705588378580e-02  8.3191191789027022e-02  8.4279737499090873e-02  8.5382526685385998e-02 
 8.6499745721909785e-02  8.7631583421338199e-02  8.8778231066936442e-02  8.9939882444885794e-02 
 9.1116733877033937e-02  9.2308984254073953e-02  9.3516835069157214e-02  9.4740490451946269e-02 
 9.5980157203113245e-02  9.7236044829289603e-02  9.8508365578473311e-02  9.9797334475899210e-02 
 1.0110316936037884e-01  1.0242609092111572e-01  1.0376632273500225e-01  1.0512409130440491e-01 
 1.0649962609544350e-01  1.0789315957677163e-01  1.0930492725886461e-01  1.1073516773382042e-01 
 1.1218412271568366e-01  1.1365203708129493e-01  1.1513915891167578e-01  1.1664573953395502e-01 
 1.1817203356384366e-01  1.1971829894866547e-01  1.2128479701095073e-01  1.2287179249260037e-01 
 1.2447955359962803e-01  1.2610835204748741e-01  1.2775846310699288e-01  1.2943016565084095e-01 
 1.3112374220074030e-01  1.3283947897515880e-01  1.3457766593769488e-01  1.3633859684608232e-01 
 1.3812256930183606e-01  1.3992988480054661e-01  1.4176084878283512e-01  1.4361577068597245e-01 
 1.4549496399617518e-01  1.4739874630158531e-01  1.4932743934594370e-01  1.5128136908296530e-01 
 1.5326086573142622e-01  1.5526626383097145e-01  1.5729790229865281e-01  1.5935612448620690e-01 
 1.6144127823808213e-01  1.6355371595022547e-01  1.6569379462963807e-01  1.6786187595471030e-01 
 1.7005832633634640e-01  1.7228351697988864e-01  1.7453782394785219e-01  1.7682162822347958e-01 
 1.7913531577512923e-01  1.8147927762150431e-01  1.8385390989773567e-01  1.8625961392232984e-01 
 1.8869679626499275e-01  1.9116586881534112e-01  1.9366724885251249e-01  1.9620135911568679e-01 
 1.9876862787552979e-01  2.0136948900657237e-01  2.0400438206053587e-01  2.0667375234061777e-01 
 2.0937805097674878e-01  2.1211773500183490e-01  2.1489326742899703e-01  2.1770511732982145e-01 
 2.2055375991363421e-01  2.2343967660781131e-01  2.2636335513914313e-01  2.2932528961626017e-01 
 2.3232598061313872e-01  2.3536593525369923e-01  2.3844566729751127e-01  2.4156569722662036e-01 
 2.4472655233351048e-01  2.4792876681021786e-01  2.5117288183861058e-01  2.5445944568184981e-01 
 2.5778901377704733e-01  2.6116214882913596e-01  2.6457942090596798e-01  2.6804140753465766e-01 
 2.7154869379918511e-01  2.7510187243927686e-01  2.7870154395058044e-01  2.8234831668614779e-01 
 2.8604280695925138e-01  2.8978563914754069e-01  2.9357744579856371e-01  2.9741886773666948e-01 
 3.0131055417130836e-01  3.0525316280675052e-01  3.0924735995323904e-01  3.1329382063959832e-01 
 3.1739322872731524e-01  3.2154627702611366e-01  3.2575366741104078e-01  3.3001611094108563e-01 
 3.3433432797934981e-01  3.3870904831479048e-01  3.4314101128555663e-01  3.4763096590393894e-01 
 3.5217967098295488e-01  3.5678789526458804e-01  3.6145641754971058e-01  3.6618602682970031e-01 
 3.7097752241978244e-01  3.7583171409411587e-01  3.8074942222264707e-01  3.8573147790975432e-01 
 3.9077872313470657e-01  3.9589201089395981e-01  4.0107220534531535e-01  4.0632018195396491e-01 
 4.1163682764044601e-01  4.1702304093053377e-01  4.2247973210709405e-01  4.2800782336392307e-01 
 4.3360824896160061e-01  4.3928195538538217e-01  4.4502990150515825e-01  4.5085305873750209e-01 
 4.5675241120984655e-01  4.6272895592680041e-01  4.6878370293864552e-01  4.7491767551203778e-01 
 4.8113191030294167e-01  4.8742745753182720e-01  4.9380538116116007e-01  5.0026675907521378e-01 
 5.0681268326223461e-01  5.1344425999898990e-01  5.2016261003773190e-01  5.2696886879560778e-01 
 5.3386418654654688e-01  5.4084972861566083e-01  5.4792667557618546e-01  5.5509622344900100e-01 
 5.6235958390476304e-01  5.6971798446867428e-01  5.7717266872794459e-01  5.8472489654195681e-01 
 5.9237594425518636e-01  6.0012710491290722e-01  6.0797968847971884e-01  6.1593502206093398e-01 
 6.2399445012686228e-01  6.3215933474002928e-01  6.4043105578536774e-01  6.4881101120342177e-01 
 6.5730061722660205e-01  6.6590130861853269e-01  6.7461453891652956e-01  6.8344178067725114e-01 
 6.9238452572556464e-01  7.0144428540666803e-01  7.1062259084151158e-01  7.1992099318555647e-01 
 7.2934106389093156e-01  7.3888439497200642e-01  7.4855259927444795e-01  7.5834731074779438e-01 
 7.6827018472159714e-01  7.7832289818517530e-01  7.8850715007103045e-01  7.9882466154197085e-01 
 8.0927717628199203e-01  8.1986646079096259e-01  8.3059430468316853e-01  8.4146252098976060e-01 
 8.5247294646516225e-01  8.6362744189748442e-01  8.7492789242300417e-01  8.8637620784475646e-01 
 8.9797432295529722e-01  9.0972419786368164e-01  9.2162781832673668e-01  9.3368719608465223e-01 
 9.4590436920097187e-01  9.5828140240703052e-01  9.7082038745089827e-01  9.8352344345089160e-01 
 9.9639271725370926e-01  1.0094303837972538e+00  1.0226386464782020e+00  1.0360197375243840e+00 
 1.0495759183720346e+00  1.0633094800479825e+00  1.0772227435568380e+00  1.0913180602732488e+00 
 1.1055978123392884e+00  1.1200644130670430e+00  1.1347203073464696e+00  1.1495679720585801e+00 
 1.1646099164940511e+00  1.1798486827772940e+00  1.1952868462960804e+00  1.2109270161367891e+00 
 1.2267718355253485e+00  1.2428239822739471e+00  1.2590861692335913e+00  1.2755611447525830e+00 
 1.2922516931409966e+00  1.3091606351412355e+00  1.3262908284047419e+00  1.3436451679749493e+00 
 1.3612265867765498e+00  1.3790380561111666e+00  1.3970825861595100e+00  1.4153632264901062e+00 
 1.4338830665746833e+00  1.4526452363102891e+00  1.4716529065482677e+00  1.4909092896301293e+00 
 1.5104176399304468e+00  1.5301812544068525e+00  1.5502034731572325e+00  1.5704876799842100e+00 
 1.5910373029670180e+00  1.6118558150408493e+00  1.6329467345837960e+00  1.6543136260114581e+00 
 1.6759601003793430e+00  1.6978898159931388e+00  1.7201064790269796e+00  1.7426138441497958e+00 
 1.7654157151598631e+00  1.7885159456276523e+00  1.8119184395470969e+00  1.8356271519953626e+00 
 1.8596460898012861e+00  1.8839793122225235e+00  1.9086309316315795e+00  1.9336051142108077e+00 
 1.9589060806565044e+00  1.9845381068922183e+00  2.0105055247913892e+00  2.0368127229094481e+00 
 2.0634641472254898e+00  2.0904643018936566e+00  2.1178177500043511e+00  2.1455291143554076e+00 
 2.1736030782333562e+00  2.2020443862049124e+00  2.2308578449188157e+00  2.2600483239181681e+00 
 2.2896207564634001e+00  2.3195801403659893e+00  2.3499315388331254e+00  2.3806800813233893e+00 
 2.4118309644136451e+00  2.4433894526772781e+00  2.4753608795739166e+00  2.5077506483508016e+00 
 2.5405642329559472e+00  2.5738071789632504e+00  2.6074851045097094e+00  2.6416037012448967e+00 
 2.6761687352928663e+00  2.7111860482266419e+00  2.7466615580554521e+00  2.7826012602248946e+00 
 2.8190112286301745e+00  2.8558976166426131e+00  2.8932666581495816e+00  2.9311246686080268e+00 
 2.9694780461118269e+00  3.0083332724730649e+00  3.0476969143174757e+00  3.0875756241942192e+00 
 3.1279761417001799e+00  3.1689052946189742e+00  3.2103700000748598e+00  3.2523772657017500e+00 
 3.2949341908275156e+00  3.3380479676737935e+00  3.3817258825714855e+00  3.4259753171921665e+00 
 3.4708037497956057e+00  3.5162187564936094e+00  3.5622280125304009e+00  3.6088392935797571e+00 
 3.6560604770591221e+00  3.7038995434608806e+00  3.7523645777011234e+00  3.8014637704859888e+00 
 3.8512054196959178e+00  3.9015979317880163e+00  3.9526498232167682e+00  4.0043697218733323e+00 
 4.0567663685436806e+00  4.1098486183858087e+00  4.1636254424262811e+00  4.2181059290763558e+00 
 4.2732992856679433e+00  4.3292148400096755e+00  4.3858620419633194e+00  4.4432504650408307e+00 
 4.5013898080222994e+00  4.5602898965950684e+00  4.6199606850143002e+00  4.6804122577852443e+00 
 4.7416548313675895e+00  4.8036987559020314e+00  4.8665545169594893e+00  4.9302327373131840e+00 
 4.9947441787339155e+00  5.0600997438088271e+00  5.1263104777839690e+00  5.1933875704309722e+00 
 5.2613423579381422e+00  5.3301863248263084e+00  5.3999311058897286e+00  5.4705884881624032e+00 
 5.5421704129101057e+00  5.6146889776484930e+00  5.6881564381876055e+00  5.7625852107031346e+00 
 5.8379878738347921e+00  5.9143771708120942e+00  5.9917660116080533e+00  6.0701674751209564e+00 
 6.1495948113847412e+00  6.2300614438082800e+00  6.3115809714439735e+00  6.3941671712860124e+00 
 6.4778340005987349e+00  6.5625955992754301e+00  6.6484662922280160e+00  6.7354605918079820e+00 
 6.8235932002590101e+00  6.9128790122016932e+00  7.0033331171507607e+00  7.0949708020652364e+00 
 7.1878075539319788e+00  7.2818590623830115e+00  7.3771412223471309e+00  7.4736701367361213e+00 
 7.5714621191662799e+00  7.6705336967153892e+00  7.7709016127158561e+00  7.8725828295843705e+00 
 7.9755945316885919e+00  8.0799541282513552e+00  8.1856792562928664e+00  8.2927877836113986e+00 
 8.4012978118029977e+00  8.5112276793206956e+00  8.6225959645737422e+00  8.7354214890674129e+00 
 8.8497233205838874e+00  8.9655207764047358e+00  9.0828334265756041e+00  9.2016810972135854e+00 
 9.3220838738579044e+00  9.4440621048643507e+00  9.5676364048442988e+00  9.6928276581485679e+00 
 9.8196570223969299e+00  9.9481459320538104e+00  1.0078316102050760e+01  1.0210189531456322e+01 
 1.0343788507193938e+01  1.0479135607808487e+01  1.0616253707282114e+01  1.0755165978899981e+01 
 1.0895895899166620e+01  1.1038467251773502e+01  1.1182904131618555e+01  1.1329230948878244e+01 
 1.1477472433132961e+01  1.1627653637546368e+01  1.1779799943099485e+01  1.1933937062880029e+01 
 1.2090091046428125e+01  1.2248288284138651e+01  1.2408555511721307e+01  1.2570919814719009e+01 
 1.2735408633085401e+01  1.2902049765822291e+01  1.3070871375677733e+01  1.3241901993905600e+01 
 1.3415170525087447e+01  1.3590706252017435e+01  1.3768538840651210e+01  1.3948698345119512e+01 
 1.4131215212807389e+01  1.4316120289499889e+01  1.4503444824595066e+01  1.4693220476385202e+01 
 1.4885479317407158e+01  1.5080253839862612e+01  1.5277576961109466e+01  1.5477482029224857e+01 
 1.5680002828641094e+01  1.5885173585855295e+01  1.6093028975213752e+01  1.6303604124771987e+01 
 1.6516934622231464e+01  1.6733056520954001e+01  1.6952006346054873e+01  1.7173821100575640e+01 
 1.7398538271737763e+01  1.7626195837278015e+01  1.7856832271866814e+01  1.8090486553610553e+01 
 1.8327198170638955e+01  1.8567007127778734e+01  1.8809953953314348e+01  1.9056079705837583e+01 
 1.9305425981186417e+01  1.9558034919474853e+01  1.9813949212214695e+01  2.0073212109530516e+01 
 2.0335867427469037e+01  2.0601959555404129e+01  2.0871533463538743e+01  2.1144634710504963e+01 
 2.1421309451063536e+01  2.1701604443904127e+01  2.1985567059547655e+01  2.2273245288352022e+01 
 2.2564687748622603e+01  2.2859943694828839e+01  2.3159063025928376e+01  2.3462096293800151e+01 
 2.3769094711787591e+01  2.4080110163354071e+01  2.4395195210851146e+01  2.4714403104401786e+01 
 2.5037787790899738e+01  2.5365403923126706e+01  2.5697306868988800e+01  2.6033552720873828e+01 
 2.6374198305131056e+01  2.6719301191675001e+01  2.7068919703714851e+01  2.7423112927611285e+01 
 2.7781940722862146e+01  2.8145463732218875e+01  2.8513743391935272e+01  2.8886841942150376e+01 
 2.9264822437407187e+01  2.9647748757309074e+01  3.0035685617315405e+01  3.0428698579678905e+01 
 3.0826854064525616e+01  3.1230219361080120e+01  3.1638862639037598e+01  3.2052852960084621e+01 
 3.2472260289570791e+01  3.2897155508333022e+01  3.3327610424674567e+01  3.3763697786500821e+01 
 3.4205491293613868e+01  3.4653065610167907e+01  3.5106496377287712e+01  3.5565860225852141e+01 
 3.6031234789444923e+01  3.6502698717474949e+01  3.6980331688468183e+01  3.7464214423533598e+01 
 3.7954428700004982e+01  3.8451057365261875e+01  3.8954184350730742e+01  3.9463894686069601e+01 
 3.9980274513538291e+01  4.0503411102556697e+01  4.1033392864453468e+01  4.1570309367407781e+01 
 4.2114251351586539e+01  4.2665310744479704e+01  4.3223580676436264e+01  4.3789155496403438e+01 
 4.4362130787871926e+01  4.4942603385029727e+01  4.5530671389127349e+01  4.6126434185057136e+01 
 4.6729992458149567e+01  4.7341448211189416e+01  4.7960904781654101e+01  4.8588466859178482e+01 
 4.9224240503247309e+01  4.9868333161119637e+01  5.0520853685987660e+01  5.1181912355373122e+01 
 5.1851620889764554e+01  5.2530092471498222e+01  5.3217441763886292e+01  5.3913784930595106e+01 
 5.4619239655277212e+01  5.5333925161460137e+01  5.6057962232695445e+01  5.6791473232971448e+01 
 5.7534582127393030e+01  5.8287414503132005e+01  5.9050097590651696e+01  5.9822760285209270e+01 
 6.0605533168638878e+01  6.1398548531421085e+01  6.2201940395039422e+01  6.3015844534631370e+01 
 6.3840398501933251e+01  6.4675741648528515e+01  6.5522015149396680e+01  6.6379362026774047e+01 
 6.7247927174323024e+01  6.8127857381621254e+01  6.9019301358967624e+01  6.9922409762516537e+01 