  <PP_INFO>

############################################################
#    Opium Parameter File                                  #
############################################################
#-----------------------------------------------------------
#Command line   : opium Kr Kr.log ae ps nl tc2 ke upf rpt 
 
#Opium version  : 4.1 
#Compile Host   : andes-login5.olcf.ornl.gov 
#Compile OS     : Linux 4.18.0-348.12.2.el8_5.x86_64 x86_64 
#Compile Date   : Thu Jun 30 15:38:05 EDT 2022 
#-----------------------------------------------------------
#Execution Host : andes-login5.olcf.ornl.gov 
#Execution Date : Thu Jun 30 16:18:04 2022
 
#-----------------------------------------------------------
############################################################
[Atom]
Kr
11
100   2.00 -
200   2.00 -
210   6.00 -
300   2.00 -
310   6.00 -
320  10.00 -
400   2.00 -
410   4.00 -
420   1.00 -
500   0.00 -
510   0.00 -

[Pseudo]
5 -1 -1 -1 -1 -1
g

[Gaussinfo]
8 4
2 2 2 4
2 5.49072858263344  92.88955174083402
2 3.86301190150576  12.92947788650997
2 4.03857692489950  43.09952401633328
2 3.30678898758958  9.50975957670500
2 4.21348003421066  17.80494496367218
2 1.54989721316990  4.58911494794530
1 10.79423805030976 8.0
3 13.32338941541937 86.353904402478080
2 9.292050205053670 -11.11453291523170
2 20.14895793077237 10.22951903851239

[KBdesign]
s

[Relativity]
nrl

[XC]
pbe

[Configs]
18

400   2.00 -
410   5.50 -
420   0.50 -
500   0.00 -
510   0.00 -

400   1.00 -
410   6.00 -
420   1.00 -
500   0.00 -
510   0.00 -

400   1.00 -
410   6.00 -
420   0.00 -
500   1.00 -
510   0.00 -

400   2.00 -
410   5.00 -
420   1.00 -
500   0.00 -
510   0.00 -

400   2.00 -
410   5.00 -
420   0.00 -
500   1.00 -
510   0.00 -

400   2.00 -
410   5.00 -
420   0.00 -
500   0.00 -
510   0.00 -

400   1.00 -
410   6.00 -
420   0.00 -
500   0.00 -
510   0.00 -

400   1.00 -
410   5.00 -
420   1.00 -
500   0.00 -
510   0.00 -

400   2.00 -
410   4.00 -
420   0.00 -
500   0.00 -
510   0.00 -

400   1.00 -
410   5.00 -
420   0.00 -
500   0.00 -
510   0.00 -

400   2.00 -
410   3.00 -
420   1.00 -
500   0.00 -
510   0.00 -

400   2.00 -
410   3.00 -
420   0.00 -
500   1.00 -
510   0.00 -

400   2.00 -
410   3.00 -
420   0.00 -
500   0.00 -
510   0.00 -

400   2.00 -
410   2.00 -
420   0.00 -
500   0.00 -
510   0.00 -

400   2.00 -
410   1.00 -
420   0.00 -
500   0.00 -
510   0.00 -

400   2.00 -
410   0.00 -
420   0.00 -
500   1.00 -
510   0.00 -

400   2.00 -
410   0.00 -
420   0.00 -
500   0.00 -
510   0.00 -

400   1.00 -
410   0.00 -
420   0.00 -
500   0.00 -
510   0.00 -

############################################################
  </PP_INFO>



<PP_HEADER>
   0         Version Number
   Kr        Element
   NC        Norm - Conserving pseudopotential
    F      Nonlinear Core Correction
SLA  PW   PBE  PBE     PBE  Exchange-Correlation functional
 8          Z valence
 0          Total energy
 0.000000   0.000000     Suggested cutoff for wfc and rho
 2           Max angular momentum component
 1168           Number of points in mesh
 3  2     Number of Wavefuncitons, Number of Projectors
 Wavefunctions         nl  l   occ
                       S  0  2.000000
                       P  1  4.000000
                      3D  2  1.000000
</PP_HEADER>
<PP_MESH>
  <PP_R>
 3.0285343213868999e-05  3.0681622912768770e-05  3.1083087878966027e-05  3.1489805960995591e-05 
 3.1901845895181339e-05  3.2319277317252888e-05  3.2742170774114026e-05  3.3170597735765523e-05 
 3.3604630607383598e-05  3.4044342741556593e-05  3.4489808450681740e-05  3.4941103019524128e-05 
 3.5398302717940025e-05  3.5861484813766641e-05  3.6330727585880623e-05  3.6806110337427223e-05 
 3.7287713409222950e-05  3.7775618193333211e-05  3.8269907146827764e-05  3.8770663805716215e-05 
 3.9277972799065765e-05  3.9791919863303725e-05  4.0312591856707202e-05  4.0840076774082373e-05 
 4.1374463761635662e-05  4.1915843132039887e-05  4.2464306379697192e-05  4.3019946196201823e-05 
 4.3582856486005251e-05  4.4153132382286220e-05  4.4730870263028531e-05  4.5316167767309083e-05 
 4.5909123811799216e-05  4.6509838607481659e-05  4.7118413676586684e-05  4.7734951869749438e-05 
 4.8359557383391973e-05  4.8992335777332731e-05  4.9633393992626356e-05  5.0282840369637021e-05 
 5.0940784666348170e-05  5.1607338076911981e-05  5.2282613250441197e-05  5.2966724310047413e-05 
 5.3659786872127958e-05  5.4361918065905378e-05  5.5073236553222559e-05  5.5793862548596864e-05 
 5.6523917839536668e-05  5.7263525807123797e-05  5.8012811446865016e-05  5.8771901389816870e-05 
 5.9540923923986399e-05  6.0320009016012239e-05  6.1109288333129251e-05  6.1908895265420572e-05 
 6.2718964948360899e-05  6.3539634285654723e-05  6.4371041972373288e-05  6.5213328518394563e-05 
 6.6066636272149403e-05  6.6931109444679217e-05  6.7806894134007714e-05  6.8694138349831825e-05 
 6.9592992038535744e-05  7.0503607108532228e-05  7.1426137455935459e-05  7.2360738990569928e-05 
 7.3307569662319318e-05  7.4266789487820710e-05  7.5238560577507713e-05  7.6223047163007364e-05 
 7.7220415624895783e-05  7.8230834520816859e-05  7.9254474613968932e-05  8.0291508901964061e-05 
 8.1342112646065200e-05  8.2406463400805599e-05  8.3484741043996175e-05  8.4577127807124882e-05 
 8.5683808306154729e-05  8.6804969572724060e-05  8.7940801085755417e-05  8.9091494803477886e-05 
 9.0257245195868505e-05  9.1438249277518292e-05  9.2634706640927773e-05  9.3846819490239145e-05 
 9.5074792675408864e-05  9.6318833726827941e-05  9.7579152890394974e-05  9.8855963163048329e-05 
 1.0014948032876298e-04  1.0145992299501865e-04  1.0278751262974492e-04  1.0413247359874983e-04 
 1.0549503320363838e-04  1.0687542172022663e-04  1.0827387243745946e-04  1.0969062169683650e-04 
 1.1112590893235460e-04  1.1257997671097269e-04  1.1405307077360616e-04  1.1554544007665779e-04 
 1.1705733683409164e-04  1.1858901656005821e-04  1.2014073811207677e-04  1.2171276373478286e-04 
 1.2330535910424828e-04  1.2491879337288099e-04  1.2655333921491251e-04  1.2820927287248058e-04 
 1.2988687420231455e-04  1.3158642672303204e-04  1.3330821766305428e-04  1.3505253800914787e-04 
 1.3681968255560315e-04  1.3860994995405440e-04  1.4042364276395299e-04  1.4226106750370052e-04 
 1.4412253470245129e-04  1.4600835895259246e-04  1.4791885896291054e-04  1.4985435761245453e-04 
 1.5181518200510288e-04  1.5380166352484492e-04  1.5581413789178550e-04  1.5785294521888251e-04 
 1.5991843006942679e-04  1.6201094151527414e-04  1.6413083319583930e-04  1.6627846337786178e-04 
 1.6845419501595413e-04  1.7065839581394129e-04  1.7289143828700453e-04  1.7515369982463658e-04 
 1.7744556275442176e-04  1.7976741440665006e-04  1.8211964717977687e-04  1.8450265860673966e-04 
 1.8691685142214099e-04  1.8936263363031282e-04  1.9184041857426960e-04  1.9435062500556416e-04 
 1.9689367715505795e-04  1.9947000480461695e-04  2.0208004335974585e-04  2.0472423392317257e-04 
 2.0740302336939582e-04  2.1011686442020774e-04  2.1286621572120533e-04  2.1565154191930180e-04 
 2.1847331374125417e-04  2.2133200807321644e-04  2.2422810804133462e-04  2.2716210309339666e-04 
 2.3013448908154903e-04  2.3314576834609850e-04  2.3619644980040795e-04  2.3928704901690412e-04 
 2.4241808831421043e-04  2.4559009684542031e-04  2.4880361068752531e-04  2.5205917293201317e-04 
 2.5535733377665177e-04  2.5869865061847372e-04  2.6208368814797803e-04  2.6551301844456390e-04 
 2.6898722107321355e-04  2.7250688318244043e-04  2.7607259960351764e-04  2.7968497295100735e-04 
 2.8334461372460308e-04  2.8705214041230607e-04  2.9080817959495039e-04  2.9461336605209786e-04 
 2.9846834286931641e-04  3.0237376154686343e-04  3.0633028210979066e-04  3.1033857321949017e-04 
 3.1439931228669963e-04  3.1851318558598628e-04  3.2268088837172915e-04  3.2690312499561859e-04 
 3.3118060902569330e-04  3.3551406336693526e-04  3.3990422038344221e-04  3.4435182202219918e-04 
 3.4885761993846818e-04  3.5342237562282174e-04  3.5804686052983499e-04  3.6273185620846424e-04 
 3.6747815443412935e-04  3.7228655734252732e-04  3.7715787756519427e-04  3.8209293836684197e-04 
 3.8709257378449178e-04  3.9215762876842894e-04  3.9728895932500109e-04  4.0248743266128525e-04 
 4.0775392733164828e-04  4.1308933338622412e-04  4.1849455252133478e-04  4.2397049823187912e-04 
 4.2951809596571545e-04  4.3513828328006494e-04  4.4083200999995957e-04  4.4660023837876710e-04 
 4.5244394326081236e-04  4.5836411224612944e-04  4.6436174585736675e-04  4.7043785770887965e-04 
 4.7659347467803319e-04  4.8282963707874566e-04  4.8914739883730584e-04  4.9554782767048764e-04 
 5.0203200526599751e-04  5.0860102746528202e-04  5.1525600444872802e-04  5.2199806092328483e-04 
 5.2882833631254353e-04  5.3574798494930174e-04  5.4275817627064821e-04  5.4986009501560183e-04 
 5.5705494142533295e-04  5.6434393144600965e-04  5.7172829693429386e-04  5.7920928586552886e-04 
 5.8678816254464905e-04  5.9446620781985191e-04  6.0224471929906328e-04  6.1012501156923688e-04 
 6.1810841641852263e-04  6.2619628306134062e-04  6.3438997836640380e-04  6.4269088708772024e-04 
 6.5110041209862134e-04  6.5961997462884883e-04  6.6825101450474801e-04  6.7699499039260049e-04 
 6.8585338004514287e-04  6.9482768055131048e-04  7.0391940858924827e-04  7.1313010068263386e-04 
 7.2246131346035336e-04  7.3191462391957579e-04  7.4149162969226799e-04  7.5119394931519995e-04 
 7.6102322250348048e-04  7.7098111042767309e-04  7.8106929599453781e-04  7.9128948413144569e-04 
 8.0164340207451745e-04  8.1213279966052846e-04  8.2275944962263735e-04  8.3352514788997902e-04 
 8.4443171389118464e-04  8.5548099086186699e-04  8.6667484615613258e-04  8.7801517156216888e-04 
 8.8950388362195971e-04  9.0114292395518825e-04  9.1293425958737233e-04  9.2487988328229895e-04 
 9.3698181387880358e-04  9.4924209663196099e-04  9.6166280355873741e-04  9.7424603378816553e-04 
 9.8699391391610406e-04  9.9990859836463527e-04  1.0129922697461691e-03  1.0262471392323096e-03 
 1.0396754469275482e-03  1.0532794622478455e-03  1.0670614843041695e-03  1.0810238422910507e-03 
 1.0951688958802201e-03  1.1094990356194019e-03  1.1240166833363177e-03  1.1387242925479859e-03 
 1.1536243488753687e-03  1.1687193704634496e-03  1.1840119084068033e-03  1.1995045471807407e-03 
 1.2151999050780886e-03  1.2311006346516879e-03  1.2472094231626824e-03  1.2635289930346702e-03 
 1.2800621023138020e-03  1.2968115451348966e-03  1.3137801521936562e-03  1.3309707912250598e-03 
 1.3483863674880201e-03  1.3660298242563753e-03  1.3839041433163133e-03  1.4020123454702982e-03 
 1.4203574910475916e-03  1.4389426804214606e-03  1.4577710545331435e-03  1.4768457954226794e-03 
 1.4961701267666768e-03  1.5157473144231275e-03  1.5355806669833409e-03  1.5556735363311052e-03 
 1.5760293182091633e-03  1.5966514527931005e-03  1.6175434252727447e-03  1.6387087664411699e-03 
 1.6601510532914089e-03  1.6818739096209742e-03  1.7038810066442897e-03  1.7261760636131283e-03 
 1.7487628484451831e-03  1.7716451783608503e-03  1.7948269205283474e-03  1.8183119927172751e-03 
 1.8421043639607311e-03  1.8662080552260827e-03  1.8906271400945232e-03  1.9153657454495168e-03 
 1.9404280521742455e-03  1.9658182958581984e-03  1.9915407675129885e-03  2.0175998142975484e-03 
 2.0439998402528073e-03  2.0707453070459860e-03  2.0978407347246298e-03  2.1252907024805058e-03 
 2.1530998494235006e-03  2.1812728753656321e-03  2.2098145416153407e-03  2.2387296717821543e-03 
 2.2680231525918932e-03  2.2976999347125338e-03  2.3277650335908895e-03  2.3582235303002278e-03 
 2.3890805723989867e-03  2.4203413748007264e-03  2.4520112206554514e-03  2.4840954622424916e-03 
 2.5165995218750384e-03  2.5495288928165322e-03  2.5828891402090372e-03  2.6166859020137641e-03 
 2.6509248899638962e-03  2.6856118905298904e-03  2.7207527658974027e-03  2.7563534549580031e-03 
 2.7924199743128804e-03  2.8289584192896459e-03  2.8659749649724659e-03  2.9034758672456642e-03 
 2.9414674638509799e-03  2.9799561754586643e-03  3.0189485067525848e-03  3.0584510475295383e-03 
 3.0984704738129315e-03  3.1390135489810585e-03  3.1800871249101194e-03  3.2216981431322047e-03 
 3.2638536360084327e-03  3.3065607279174334e-03  3.3498266364593871e-03  3.3936586736758134e-03 
 3.4380642472853300e-03  3.4830508619355599e-03  3.5286261204714553e-03  3.5747977252201823e-03 
 3.6215734792928353e-03  3.6689612879031840e-03  3.7169691597036723e-03  3.7656052081388954e-03 
 3.8148776528167988e-03  3.8647948208978098e-03  3.9153651485021347e-03  3.9665971821355043e-03 
 4.0184995801335393e-03  4.0710811141250356e-03  4.1243506705143851e-03  4.1783172519834055e-03 
 4.2329899790128104e-03  4.2883780914235933e-03  4.3444909499385865e-03  4.4013380377644238e-03 
 4.4589289621942531e-03  4.5172734562313761e-03  4.5763813802341506e-03  4.6362627235824140e-03 
 4.6969276063657164e-03  4.7583862810936378e-03  4.8206491344284829e-03  4.8837266889406629e-03 
 4.9476296048870105e-03  5.0123686820124210e-03  5.0779548613750147e-03  5.1443992271952045e-03 
 5.2117130087289583e-03  5.2799075821655678e-03  5.3489944725502551e-03  5.4189853557319268e-03 
 5.4898920603364309e-03  5.5617265697656022e-03  5.6345010242225104e-03  5.7082277227631702e-03 
 5.7829191253751123e-03  5.8585878550831477e-03  5.9352467000826992e-03  6.0129086159010255e-03 
 6.0915867275867439e-03  6.1712943319279954e-03  6.2520448996996152e-03  6.3338520779397545e-03 
 6.4167296922562475e-03  6.5006917491631684e-03  6.5857524384479744e-03  6.6719261355696049e-03 
 6.7592274040879762e-03  6.8476709981252536e-03  6.9372718648593405e-03  7.0280451470499600e-03 
 7.1200061855978590e-03  7.2131705221374258e-03  7.3075539016632801e-03  7.4031722751911984e-03 
 7.5000418024538905e-03  7.5981788546320246e-03  7.6976000171209901e-03  7.7983220923338887e-03 
 7.9003621025411450e-03  8.0037372927473580e-03  8.1084651336057155e-03  8.2145633243705836e-03 
 8.3220497958887245e-03  8.4309427136296539e-03  8.5412604807556455e-03  8.6530217412319130e-03 
 8.7662453829774837e-03  8.8809505410572843e-03  8.9971566009160418e-03  9.1148832016544595e-03 
 9.2341502393482600e-03  9.3549778704106815e-03  9.4773865149989540e-03  9.6013968604653568e-03 
 9.7270298648534335e-03  9.8543067604399508e-03  9.9832490573231788e-03  1.0113878547058190e-02 
 1.0246217306339666e-02  1.0380287700732899e-02  1.0516112388453647e-02  1.0653714324197408e-02 
 1.0793116763018829e-02  1.0934343264261863e-02  1.1077417695541360e-02  1.1222364236776720e-02 
 1.1369207384278409e-02  1.1517971954887853e-02  1.1668683090171562e-02  1.1821366260670103e-02 
 1.1976047270202694e-02  1.2132752260228100e-02  1.2291507714262608e-02  1.2452340462355814e-02 
 1.2615277685624924e-02  1.2780346920848486e-02  1.2947576065120130e-02  1.3116993380563267e-02 
 1.3288627499107430e-02  1.3462507427327164e-02  1.3638662551344181e-02  1.3817122641793717e-02 
 1.3997917858855815e-02  1.4181078757352444e-02  1.4366636291911407e-02  1.4554621822197689e-02 
 1.4745067118213325e-02  1.4938004365666628e-02  1.5133466171411626e-02  1.5331485568958704e-02 
 1.5532096024057356e-02  1.5735331440351979e-02  1.5941226165111615e-02  1.6149814995034820e-02 
 1.6361133182130304e-02  1.6575216439674651e-02  1.6792100948247918e-02  1.7011823361848269e-02 
 1.7234420814086555e-02  1.7459930924462009e-02  1.7688391804720038e-02  1.7919842065293137e-02 
 1.8154320821826223e-02  1.8391867701787235e-02  1.8632522851164280e-02  1.8876326941250375e-02 
 1.9123321175517030e-02  1.9373547296577694e-02  1.9627047593242401e-02  1.9883864907664653e-02 
 2.0144042642581808e-02  2.0407624768650330e-02  2.0674655831876873e-02  2.0945180961146684e-02 
 2.1219245875850487e-02  2.1496896893611166e-02  2.1778180938111558e-02  2.2063145547024671e-02 
 2.2351838880047672e-02  2.2644309727040918e-02  2.2940607516273682e-02  2.3240782322777563e-02 
 2.3544884876809301e-02  2.3852966572424326e-02  2.4165079476162459e-02  2.4481276335847287e-02 
 2.4801610589500683e-02  2.5126136374373956e-02  2.5454908536097113e-02  2.5787982637948015e-02 
 2.6125414970242625e-02  2.6467262559848218e-02  2.6813583179821073e-02  2.7164435359170239e-02 
 2.7519878392749088e-02  2.7879972351276285e-02  2.8244778091487906e-02  2.8614357266422266e-02 
 2.8988772335839588e-02  2.9368086576777752e-02  2.9752364094246277e-02  3.0141669832060236e-02 
 3.0536069583815901e-02  3.0935630004010031e-02  3.1340418619304630e-02  3.1750503839939152e-02 
 3.2165954971291863e-02  3.2586842225592806e-02  3.3013236733789718e-02  3.3445210557569334e-02 
 3.3882836701536009e-02  3.4326189125549682e-02  3.4775342757225221e-02  3.5230373504595409e-02 
 3.5691358268939599e-02  3.6158374957780098e-02  3.6631502498048890e-02  3.7110820849426379e-02 
 3.7596411017854756e-02  3.8088355069228252e-02  3.8586736143262412e-02  3.9091638467544952e-02 
 3.9603147371770384e-02  4.0121349302161012e-02  4.0646331836076355e-02  4.1178183696814197e-02 
 4.1716994768604861e-02  4.2262856111801902e-02  4.2815859978271531e-02  4.3376099826983365e-02 
 4.3943670339805285e-02  4.4518667437504808e-02  4.5101188295960049e-02  4.5691331362582459e-02 
 4.6289196372954935e-02  4.6894884367687212e-02  4.7508497709491976e-02  4.8130140100484470e-02 
 4.8759916599708339e-02  4.9397933640890873e-02  5.0044299050430584e-02  5.0699122065620134e-02 
 5.1362513353107535e-02  5.2034585027599368e-02  5.2715450670808212e-02  5.3405225350648296e-02 
 5.4104025640682243e-02  5.4811969639822281e-02  5.5529176992289236e-02  5.6255768907832696e-02 
 5.6991868182215813e-02  5.7737599217967825e-02  5.8493088045408745e-02  5.9258462343948555e-02 
 6.0033851463665369e-02  6.0819386447165905e-02  6.1615200051732030e-02  6.2421426771757056e-02 
 6.3238202861475523e-02  6.4065666357990686e-02  6.4903957104602783e-02  6.5753216774443249e-02 
 6.6613588894417597e-02  6.7485218869461905e-02  6.8368254007116491e-02  6.9262843542421348e-02 
 7.0169138663137148e-02  7.1087292535296345e-02  7.2017460329088706e-02  7.2959799245085138e-02 
 7.3914468540805370e-02  7.4881629557632598e-02  7.5861445748080569e-02  7.6854082703417564e-02 
 7.7859708181651568e-02  7.8878492135881925e-02  7.9910606743021681e-02  8.0956226432896058e-02 
 8.2015527917721168e-02  8.3088690221969255e-02  8.4175894712624003e-02  8.5277325129831938e-02 
 8.6393167617955097e-02  8.7523610757029802e-02  8.8668845594637086e-02  8.9829065678190309e-02 
 9.1004467087644994e-02  9.2195248468636942e-02  9.3401611066053686e-02  9.4623758758045476e-02 
 9.5861898090481235e-02  9.7116238311854730e-02  9.8386991408648955e-02  9.9674372141161788e-02 
 1.0097859807980114e-01  1.0229988964185481e-01  1.0363847012874158e-01  1.0499456576374971e-01 
 1.0636840573026912e-01  1.0776022221052405e-01  1.0917025042481229e-01  1.1059872867125811e-01 
 1.1204589836608503e-01  1.1351200408441590e-01  1.1499729360160657e-01  1.1650201793512063e-01 
 1.1802643138695178e-01  1.1957079158660165e-01  1.2113535953461992e-01  1.2272039964671319e-01 
 1.2432617979843319e-01  1.2595297137044748e-01  1.2760104929440361e-01  1.2927069209939332e-01 
 1.3096218195902462e-01  1.3267580473910962e-01  1.3441185004597681e-01  1.3617061127541497e-01 
 1.3795238566225787e-01  1.3975747433061775e-01  1.4158618234477580e-01  1.4343881876073891e-01 
 1.4531569667847088e-01  1.4721713329480693e-01  1.4914344995706080e-01  1.5109497221733326e-01 
 1.5307202988753138e-01  1.5507495709510646e-01  1.5710409233952399e-01  1.5915977854946986e-01 
 1.6124236314080626e-01  1.6335219807528586e-01  1.6548963992003424e-01  1.6765504990781047e-01 
 1.6984879399805630e-01  1.7207124293874443e-01  1.7432277232903537e-01  1.7660376268275499e-01 
 1.7891459949270205e-01  1.8125567329579739e-01  1.8362737973908580e-01  1.8603011964660104e-01 
 1.8846429908710621e-01  1.9093032944272037e-01  1.9342862747844336e-01  1.9595961541258872e-01 
 1.9852372098814164e-01  2.0112137754504722e-01  2.0375302409344623e-01  2.0641910538786895e-01 
 2.0912007200239968e-01  2.1185638040682478e-01  2.1462849304377732e-01  2.1743687840689085e-01 
 2.2028201111997597e-01  2.2316437201723283e-01  2.2608444822451337e-01  2.2904273324164681e-01 
 2.3203972702584189e-01  2.3507593607618130e-01  2.3815187351922107e-01  2.4126805919571012e-01 
 2.4442501974844497e-01  2.4762328871127209e-01  2.5086340659925876e-01  2.5414592100003991e-01 
 2.5747138666636199e-01  2.6084036560983742e-01  2.6425342719592626e-01  2.6771114824015990e-01 
 2.7121411310562460e-01  2.7476291380171991e-01  2.7835815008421005e-01  2.8200042955658383e-01 
 2.8569036777274087e-01  2.8942858834102225e-01  2.9321572302960131e-01  2.9705241187325415e-01 
 3.0093930328152707e-01  3.0487705414831923e-01  3.0886632996289981e-01  3.1290780492237535e-01 
 3.1700216204563364e-01  3.2115009328877347e-01  3.2535229966204737e-01  3.2960949134833412e-01 
 3.3392238782316119e-01  3.3829171797629798e-01  3.4271822023493981e-01  3.4720264268850376e-01 
 3.5174574321505803e-01  3.5634828960940451e-01  3.6101105971283842e-01  3.6573484154460506e-01 
 3.7052043343507696e-01  3.7536864416067389e-01  3.8028029308054767e-01  3.8525621027505597e-01 
 3.9029723668604849e-01  3.9540422425898542e-01  4.0057803608692244e-01  4.0581954655637259e-01 
 4.1112964149508063e-01  4.1650921832172960e-01  4.2195918619760714e-01  4.2748046618025587e-01 
 4.3307399137913383e-01  4.3874070711331287e-01  4.4448157107123948e-01  4.5029755347258615e-01 
 4.5618963723222145e-01  4.6215881812632442e-01  4.6820610496067361e-01  4.7433251974113677e-01 
 4.8053909784639359e-01  4.8682688820291592e-01  4.9319695346224063e-01  4.9965037018055597e-01 
 5.0618822900064808e-01  5.1281163483621806e-01  5.1952170705861689e-01  5.2631957968602050e-01 
 5.3320640157508248e-01  5.4018333661509343e-01  5.4725156392468111e-01  5.5441227805108362e-01 
 5.6166668917203166e-01  5.6901602330027079e-01  5.7646152249076077e-01  5.8400444505058602e-01 
 5.9164606575161183e-01  5.9938767604592458e-01  6.0723058428408960e-01  6.1517611593626631e-01 
 6.2322561381621600e-01  6.3138043830823676e-01  6.3964196759707814e-01  6.4801159790085316e-01 
 6.5649074370700378e-01  6.6508083801135232e-01  6.7378333256028156e-01  6.8259969809608290e-01 
 6.9153142460551598e-01  7.0058002157161892e-01  7.0974701822881558e-01  7.1903396382135965e-01 
 7.2844242786516000e-01  7.3797400041303285e-01  7.4763029232342504e-01  7.5741293553265232e-01 
 7.6732358333070072e-01  7.7736391064063637e-01  7.8753561430167285e-01  7.9784041335593603e-01 
 8.0828004933899367e-01  8.1885628657417431e-01  8.2957091247074322e-01  8.4042573782597862e-01 
 8.5142259713120128e-01  8.6256334888180719e-01  8.7384987589135832e-01  8.8528408560978233e-01 
 8.9686791044573611e-01  9.0860330809318768e-01  9.2049226186227073e-01  9.3253678101446924e-01 
 9.4473890110218683e-01  9.5710068431276085e-01  9.6962421981697566e-01  9.8231162412213913e-01 
 9.9516504142977780e-01  1.0081866439980052e+00  1.0213786325086502e+00  1.0347432364391691e+00 
 1.0482827144394351e+00  1.0619993547134559e+00  1.0758954754060843e+00  1.0899734249947914e+00 
 1.1042355826865651e+00  1.1186843588200004e+00  1.1333221952726531e+00  1.1481515658737234e+00 
 1.1631749768221380e+00  1.1783949671101046e+00  1.1938141089522070e+00  1.2094350082201153e+00 
 1.2252603048829849e+00  1.2412926734536180e+00  1.2575348234404635e+00  1.2739894998055230e+00 
 1.2906594834282679e+00  1.3075475915756065e+00  1.3246566783780109e+00  1.3419896353118725e+00 
 1.3595493916881667e+00  1.3773389151475157e+00  1.3953612121617243e+00  1.4136193285418828e+00 
 1.4321163499531155e+00  1.4508554024360660e+00  1.4698396529352042e+00  1.4890723098340493e+00 
 1.5085566234973922e+00  1.5282958868206171e+00  1.5482934357862066e+00  1.5685526500275320e+00 
 1.5890769534000222e+00  1.6098698145597909e+00  1.6309347475498663e+00  1.6522753123940599e+00 
 1.6738951156986233e+00  1.6957978112617720e+00  1.7179871006911869e+00  1.7404667340295938e+00 
 1.7632405103885311e+00  1.7863122785904071e+00  1.8096859378189609e+00  1.8333654382782336e+00 
 1.8573547818601623e+00  1.8816580228209101e+00  1.9062792684660421e+00  1.9312226798446741e+00 
 1.9564924724526966e+00  1.9820929169452048e+00  2.0080283398582535e+00  2.0343031243400365e+00 
 2.0609217108916713e+00  2.0878885981176389e+00  2.1152083434860662e+00  2.1428855640989428e+00 
 2.1709249374724271e+00  2.1993312023273557e+00  2.2281091593900983e+00  2.2572636722038935e+00 
 2.2867996679507971e+00  2.3167221382843888e+00  2.3470361401733730e+00  2.3777467967562198e+00 
 2.4088592982069859e+00  2.4403789026124669e+00  2.4723109368608274e+00  2.5046607975418569e+00 
 2.5374339518590099e+00  2.5706359385533610e+00  2.6042723688396898e+00  2.6383489273547731e+00 
 2.6728713731181046e+00  2.7078455405051862e+00  2.7432773402335466e+00  2.7791727603616727e+00 
 2.8155378673009994e+00  2.8523788068411529e+00  2.8897018051885994e+00  2.9275131700188930e+00 
 2.9658192915426849e+00  3.0046266435856834e+00  3.0439417846827506e+00  3.0837713591863047e+00 
 3.1241220983892357e+00  3.1650008216625074e+00  3.2064144376076538e+00  3.2483699452243262e+00 
 3.2908744350931767e+00  3.3339350905741574e+00  3.3775591890205332e+00  3.4217541030087713e+00 
 3.4665273015845237e+00  3.5118863515249137e+00  3.5578389186173407e+00  3.6043927689550150e+00 
 3.6515557702494470e+00  3.6993358931601059e+00  3.7477412126414871e+00  3.7967799093077912e+00 
 3.8464602708154709e+00  3.8967906932638670e+00  3.9477796826141631e+00  3.9994358561269183e+00 
 4.0517679438184100e+00  4.1047847899360015e+00  4.1584953544528753e+00  4.2129087145822730e+00 
 4.2680340663115661e+00  4.3238807259563989e+00  4.3804581317351730e+00  4.4377758453641256e+00 
 4.4958435536732786e+00  4.5546710702435469e+00  4.6142683370652433e+00  4.6746454262183086e+00 
 4.7358125415745134e+00  4.7977800205219356e+00  4.8605583357120077e+00  4.9241580968294132e+00 
 4.9885900523851561e+00  5.0538650915330789e+00  5.1199942459101671e+00  5.1869886915008871e+00 
 5.2548597505260055e+00  5.3236188933560378e+00  5.3932777404497756e+00  5.4638480643181717e+00 
 5.5353417915139245e+00  5.6077710046470921e+00  5.6811479444270825e+00  5.7554850117313627e+00 
 5.8307947697012361e+00  5.9070899458650450e+00  5.9843834342891515e+00  6.0626882977570631e+00 
 6.1420177699770813e+00  6.2223852578188215e+00  6.3038043435790119e+00  6.3862887872769312e+00 
 6.4698525289798976e+00  6.5545096911591241e+00  6.6402745810765245e+00  6.7271616932026221e+00 
 6.8151857116661674e+00  6.9043615127357851e+00  6.9947041673341035e+00  7.0862289435847741e+00 
 7.1789513093928212e+00  7.2728869350587537e+00  7.3680516959268845e+00  7.4644616750683053e+00 
 7.5621331659989517e+00  7.6610826754332599e+00  7.7613269260738367e+00  7.8628828594376268e+00 
 7.9657676387190843e+00  8.0699986516907831e+00  8.1755935136420081e+00  8.2825700703557299e+00 
 8.3909464011246584e+00  8.5007408218066427e+00  8.6119718879200970e+00  8.7246583977799368e+00 
 8.8388193956745305e+00  8.9544741750842380e+00  9.0716422819420526e+00  9.1903435179369009e+00 
 9.3105979438601842e+00  9.4324258829961067e+00  9.5558479245563390e+00  9.6808849271596671e+00 
 9.8075580223571244e+00  9.9358886182033004e+00  1.0065898402874327e+01  1.0197609348333252e+01 
 1.0331043714043359e+01  1.0466224050730006e+01  1.0603173204191851e+01  1.0741914319161783e+01 
 1.0882470843218449e+01  1.1024866530748952e+01  1.1169125446963399e+01  1.1315271971961984e+01 
 1.1463330804855271e+01  1.1613326967938415e+01  1.1765285810919984e+01  1.1919233015206114e+01 
 1.2075194598240744e+01  1.2233196917902607e+01  1.2393266676959788e+01  1.2555430927582547e+01 
 1.2719717075915209e+01  1.2886152886707858e+01  1.3054766488008674e+01  1.3225586375917549e+01 
 1.3398641419402127e+01  1.3573960865176648e+01  1.3751574342644723e+01  1.3931511868906783e+01 
 1.4113803853833033e+01  1.4298481105202800e+01  1.4485574833911114e+01  1.4675116659243432e+01 
 1.4867138614219353e+01  1.5061673151006310e+01  1.5258753146404025e+01  1.5458411907400793e+01 
 1.5660683176802422e+01  1.5865601138934876e+01  1.6073200425421476e+01  1.6283516121035742e+01 
 1.6496583769630835e+01  1.6712439380146435e+01  1.6931119432694501e+01  1.7152660884724394e+01 
 1.7377101177268795e+01  1.7604478241271341e+01  1.7834830503997022e+01  1.8068196895526498e+01 
 1.8304616855335375e+01  1.8544130338959565e+01  1.8786777824747862e+01  1.9032600320702890e+01 
 1.9281639371411543e+01  1.9533937065066137e+01  1.9789536040577385e+01  2.0048479494780501e+01 
 2.0310811189735560e+01  2.0576575460123408e+01  2.0845817220738226e+01  2.1118581974078410e+01 
 2.1394915818036480e+01  2.1674865453689769e+01  2.1958478193193006e+01  2.2245801967774199e+01 
 2.2536885335835098e+01  2.2831777491157727e+01  2.3130528271218203e+01  2.3433188165609405e+01 
 2.3739808324573850e+01  2.4050440567648192e+01  2.4365137392420838e+01  2.4683951983404189e+01 
 2.5006938221022931e+01  2.5334150690719955e+01  2.5665644692181438e+01  2.6001476248682664e+01 
 2.6341702116555908e+01  2.6686379794782638e+01  2.7035567534710861e+01  2.7389324349899713e+01 
 2.7747710026092939e+01  2.8110785131322807e+01  2.8478611026146261e+01  2.8851249874014982e+01 
 2.9228764651781173e+01  2.9611219160340809e+01  2.9998678035416098e+01  3.0391206758479136e+01 
 3.0788871667818373e+01  3.1191739969749953e+01  3.1599879749975791e+01  3.2013359985090140e+01 
 3.2432250554236859e+01  3.2856622250919202e+01  3.3286546794963833e+01  3.3722096844642010e+01 
 3.4163346008948785e+01  3.4610368860043145e+01  3.5063240945850879e+01  3.5522038802832363e+01 
 3.5986839968917408e+01  3.6457722996609370e+01  3.6934767466260666e+01  3.7418053999522073e+01 
 3.7907664272967992e+01  3.8403681031899950e+01  3.8906188104330781e+01  3.9415270415151731e+01 
 3.9931014000485000e+01  4.0453506022224019e+01  4.0982834782764058e+01  4.1519089739925569e+01 
 4.2062361522072507e+01  4.2612741943429157e+01  4.3170324019596698e+01  4.3735201983273107e+01 
 4.4307471300178690e+01  4.4887228685190081e+01  4.5474572118685202e+01  4.6069600863102274e+01 
 4.6672415479715312e+01  4.7283117845629278e+01  4.7901811170997561e+01  4.8528600016464686e+01 