  <PP_INFO>

############################################################
#    Opium Parameter File                                  #
############################################################
#-----------------------------------------------------------
#Command line   : opium Ag Ag.log ae ps nl tc2 ke upf qmcpack rpt 
 
#Opium version  : 4.1 
#Compile Host   : ben-XPS-15-7590 
#Compile OS     : Linux 6.5.0-26-generic x86_64 
#Compile Date   : Wed Apr 17 18:47:06 EDT 2024 
#-----------------------------------------------------------
#Execution Host : ben-XPS-15-7590 
#Execution Date : Fri Apr 19 01:21:56 2024
 
#-----------------------------------------------------------
############################################################
[Atom]
Ag
11
100   2.00  -
200   2.00  -
210   6.00  -
300   2.00  -
310   6.00  -
320   10.0  -
400   2.00  -
410   6.00  -
420   8.00  -
500   0.00  -
510   0.00  -

[Pseudo]
5 -1 -1 -1 -1 -1
g

[Gaussinfo]
19 4
2 2 2 4
2  12.57067724180113  281.00441811099660
2  7.07522814100377  40.24656462522648
2  11.40284147576970  210.99243904272370
2  6.50491457512741  30.82987222347189
2  10.79267544476592  101.03360986818583
2  4.48539588858540  14.81363987308751
1  11.11699601755791  19.0
3  11.30706740194795  211.222924333600290
2  10.88746528420199  -111.38567369335220
2  6.05089592989141  -10.04923439650254


[KBdesign]
s

[Relativity]
srl

[XC]
pbe

[Configs]
11

400   2.00  -
410   6.00  -
420   10.0  -
500   1.00  -
510   0.00  -

400   2.00  -
410   6.00  -
420   10.0  -
500   0.00  -
510   0.00  -

400   2.00  -
410   6.00  -
420   9.00  -
500   1.00  -
510   0.00  -

400   2.00  -
410   6.00  -
420   9.00  -
500   0.00  -
510   1.00  -

400   2.00  -
410   6.00  -
420   8.00  -
500   2.00  -
510   0.00  -

400   2.00  -
410   6.00  -
420   9.00  -
500   0.00  -
510   0.00  -

400   2.00  -
410   6.00  -
420   8.00  -
500   1.00  -
510   0.00  -

400   2.00  -
410   6.00  -
420   8.00  -
500   0.00  -
510   0.00  -

400   2.00  -
410   6.00  -
420   7.00  -
500   0.00  -
510   0.00  -

400   2.00  -
410   6.00  -
420   6.00  -
500   0.00  -
510   0.00  -

400   2.00  -
410   6.00  -
420   5.00  -
500   0.00  -
510   0.00  -

############################################################
  </PP_INFO>



<PP_HEADER>
   0         Version Number
   Ag        Element
   NC        Norm - Conserving pseudopotential
    F      Nonlinear Core Correction
SLA  PW   PBE  PBE     PBE  Exchange-Correlation functional
 19          Z valence
 0          Total energy
 0.000000   0.000000     Suggested cutoff for wfc and rho
 2           Max angular momentum component
 1175           Number of points in mesh
 3  2     Number of Wavefuncitons, Number of Projectors
 Wavefunctions         nl  l   occ
                      4S  0  2.000000
                      4P  1  6.000000
                      4D  2  8.000000
</PP_HEADER>
<PP_MESH>
  <PP_R>
 2.7709841865296196e-05  2.8072421470664882e-05  2.8439745382077187e-05  2.8811875678148407e-05 
 2.9188875249784286e-05  2.9570807810809757e-05  2.9957737908736608e-05  3.0349730935672350e-05 
 3.0746853139371513e-05  3.1149171634431720e-05  3.1556754413636190e-05  3.1969670359444683e-05 
 3.2387989255634834e-05  3.2811781799095739e-05  3.3241119611775931e-05  3.3676075252787570e-05 
 3.4116722230669242e-05  3.4563135015808999e-05  3.5015389053030036e-05  3.5473560774341036e-05 
 3.5937727611853423e-05  3.6407968010867467e-05  3.6884361443129835e-05  3.7366988420264481e-05 
 3.7855930507379166e-05  3.8351270336850371e-05  3.8853091622288236e-05  3.9361479172684385e-05 
 3.9876518906744846e-05  4.0398297867410521e-05  4.0926904236567642e-05  4.1462427349950739e-05 
 4.2004957712240601e-05  4.2554587012359666e-05  4.3111408138967841e-05  4.3675515196160823e-05 
 4.4247003519373918e-05  4.4825969691493923e-05  4.5412511559181949e-05  4.6006728249409642e-05 
 4.6608720186211941e-05  4.7218589107659018e-05  4.7836438083050068e-05  4.8462371530332498e-05 
 4.9096495233748682e-05  4.9738916361713781e-05  5.0389743484927447e-05  5.1049086594722521e-05 
 5.1717057121653876e-05  5.2393767954330429e-05  5.3079333458493454e-05  5.3773869496344914e-05 
 5.4477493446128271e-05  5.5190324221965727e-05  5.5912482293955006e-05  5.6644089708529079e-05 
 5.7385270109082311e-05  5.8136148756866472e-05  5.8896852552160196e-05  5.9667510055715494e-05 
 6.0448251510484607e-05  6.1239208863631673e-05  6.2040515788831929e-05  6.2852307708862934e-05 
 6.3674721818491318e-05  6.4507897107659017e-05  6.5351974384972940e-05  6.6207096301502009e-05 
 6.7073407374885276e-05  6.7951054013756088e-05  6.8840184542485309e-05  6.9740949226248500e-05 
 7.0653500296421142e-05  7.1577991976306038e-05  7.2514580507197478e-05  7.3463424174786358e-05 
 7.4424683335910837e-05  7.5398520445657015e-05  7.6385100084814346e-05  7.7384588987689895e-05 
 7.8397156070287148e-05  7.9422972458853108e-05  8.0462211518798966e-05  8.1515048883999355e-05 
 8.2581662486474845e-05  8.3662232586462947e-05  8.4756941802882318e-05  8.5865975144196096e-05 
 8.6989520039678546e-05  8.8127766371091199e-05  8.9280906504773168e-05  9.0449135324151638e-05 
 9.1632650262677586e-05  9.2831651337192493e-05  9.4046341181731698e-05  9.5276925081770004e-05 
 9.6523611008915512e-05  9.7786609656056977e-05  9.9066134472971905e-05  1.0036240170239976e-04 
 1.0167563041658752e-04  1.0300604255431354e-04  1.0435386295839559e-04  1.0571931941368998e-04 
 1.0710264268558740e-04  1.0850406655901334e-04  1.0992382787793791e-04  1.1136216658540321e-04 
 1.1281932576407418e-04  1.1429555167732018e-04  1.1579109381083410e-04  1.1730620491479609e-04 
 1.1884114104658877e-04  1.2039616161407174e-04  1.2197152941942212e-04  1.2356751070354829e-04 
 1.2518437519108602e-04  1.2682239613598197e-04  1.2848185036767442e-04  1.3016301833787829e-04 
 1.3186618416798182e-04  1.3359163569706415e-04  1.3533966453054016e-04  1.3711056608944333e-04 
 1.3890463966035203e-04  1.4072218844596982e-04  1.4256351961636739e-04  1.4442894436089509e-04 
 1.4631877794077464e-04  1.4823333974237903e-04  1.5017295333120956e-04  1.5213794650657925e-04 
 1.5412865135701169e-04  1.5614540431636444e-04  1.5818854622068782e-04  1.6025842236582654e-04 
 1.6235538256577565e-04  1.6447978121179988e-04  1.6663197733232671e-04  1.6881233465362305e-04 
 1.7102122166126539e-04  1.7325901166241557e-04  1.7552608284890990e-04  1.7782281836117473e-04 
 1.8014960635297811e-04  1.8250684005702864e-04  1.8489491785143275e-04  1.8731424332702154e-04 
 1.8976522535555862e-04  1.9224827815884037e-04  1.9476382137870068e-04  1.9731228014793051e-04 
 1.9989408516212764e-04  2.0250967275248447e-04  2.0515948495952906e-04  2.0784396960783145e-04 
 2.1056358038168611e-04  2.1331877690178693e-04  2.1611002480290354e-04  2.1893779581257458e-04 
 2.2180256783083108e-04  2.2470482501096254e-04  2.2764505784134007e-04  2.3062376322831009e-04 
 2.3364144458017254e-04  2.3669861189225825e-04  2.3979578183311938e-04  2.4293347783184747e-04 
 2.4611223016653431e-04  2.4933257605389041e-04  2.5259505974003512e-04  2.5590023259247646e-04 
 2.5924865319329335e-04  2.6264088743353694e-04  2.6607750860886735e-04  2.6955909751644278e-04 
 2.7308624255307530e-04  2.7665953981467095e-04  2.8027959319697172e-04  2.8394701449761534e-04 
 2.8766242351953037e-04  2.9142644817568467e-04  2.9523972459520375e-04  2.9910289723087861e-04 
 3.0301661896807924e-04  3.0698155123509436e-04  3.1099836411491399e-04  3.1506773645847551e-04 
 3.1919035599938992e-04  3.2336691947017221e-04  3.2759813271998947e-04  3.3188471083395193e-04 
 3.3622737825396274e-04  3.4062686890115227e-04  3.4508392629991084e-04  3.4959930370354731e-04 
 3.5417376422158987e-04  3.5880808094875357e-04  3.6350303709559568e-04  3.6825942612087932e-04 
 3.7307805186567044e-04  3.7795972868918866e-04  3.8290528160643609e-04  3.8791554642762669e-04 
 3.9299136989944027e-04  3.9813360984812426e-04  4.0334313532446893e-04  4.0862082675067915e-04 
 4.1396757606916725e-04  4.1938428689329419e-04  4.2487187466008102e-04  4.3043126678492163e-04 
 4.3606340281831689e-04  4.4176923460466155e-04  4.4754972644310814e-04  4.5340585525053504e-04 
 4.5933861072664905e-04  4.6534899552124620e-04  4.7143802540366232e-04  4.7760672943443949e-04 
 4.8385615013924138e-04  4.9018734368504126e-04  4.9660138005861712e-04  5.0309934324738246e-04 
 5.0968233142258156e-04  5.1635145712488424e-04  5.2310784745240749e-04  5.2995264425119762e-04 
 5.3688700430820462e-04  5.4391209954678284e-04  5.5102911722474768e-04  5.5823926013502613e-04 
 5.6554374680893116e-04  5.7294381172209548e-04  5.8044070550310255e-04  5.8803569514484456e-04 
 5.9573006421864824e-04  6.0352511309119986e-04  6.1142215914431191e-04  6.1942253699756328e-04 
 6.2752759873385287e-04  6.3573871412790509e-04  6.4405727087776430e-04  6.5248467483932043e-04 
 6.6102235026390115e-04  6.6967174003897372e-04  6.7843430593199632e-04  6.8731152883746050e-04 
 6.9630490902716628e-04  7.0541596640377074e-04  7.1464624075765588e-04  7.2399729202715602e-04 
 7.3347070056219231e-04  7.4306806739135481e-04  7.5279101449248062e-04  7.6264118506677093e-04 
 7.7262024381649717e-04  7.8272987722633933e-04  7.9297179384840558e-04  8.0334772459098231e-04 
 8.1385942301105967e-04  8.2450866561068999e-04  8.3529725213721913e-04  8.4622700588744793e-04 
 8.5729977401577363e-04  8.6851742784636442e-04  8.7988186318941654e-04  8.9139500066155166e-04 
 9.0305878601040540e-04  9.1487519044346178e-04  9.2684621096119453e-04  9.3897387069456328e-04 
 9.5126021924692855e-04  9.6370733304043752e-04  9.7631731566694699e-04  9.8909229824353383e-04 
 1.0020344397726592e-03  1.0151459275070454e-03  1.0284289773193254e-03  1.0418858340765329e-03 
 1.0555187720194883e-03  1.0693300951471524e-03  1.0833221376060050e-03  1.0974972640845244e-03 
 1.1118578702128236e-03  1.1264063829675183e-03  1.1411452610818910e-03  1.1560769954614221e-03 
 1.1712041096047614e-03  1.1865291600302030e-03  1.2020547367077444e-03  1.2177834634967955e-03 
 1.2337179985896199e-03  1.2498610349605743e-03  1.2662153008212271e-03  1.2827835600814342e-03 
 1.2995686128164433e-03  1.3165732957401174e-03  1.3338004826843437e-03  1.3512530850847181e-03 
 1.3689340524725843e-03  1.3868463729735142e-03  1.4049930738123048e-03  1.4233772218245893e-03 
 1.4420019239751382e-03  1.4608703278829421e-03  1.4799856223531712e-03  1.4993510379160870e-03 
 1.5189698473730110e-03  1.5388453663494363e-03  1.5589809538553768e-03  1.5793800128530431e-03 
 1.6000459908319588e-03  1.6209823803915893e-03  1.6421927198316008e-03  1.6636805937498410e-03 
 1.6854496336481462e-03  1.7075035185460711e-03  1.7298459756026536e-03  1.7524807807463155e-03 
 1.7754117593129955e-03  1.7986427866926514e-03  1.8221777889842021e-03  1.8460207436590504e-03 
 1.8701756802332850e-03  1.8946466809486786e-03  1.9194378814625943e-03  1.9445534715469251e-03 
 1.9699976957961748e-03  1.9957748543447972e-03  2.0218893035939410e-03  2.0483454569476846e-03 
 2.0751477855589125e-03  2.1023008190849523e-03  2.1298091464530969e-03  2.1576774166361438e-03 
 2.1859103394380832e-03  2.2145126862900678e-03  2.2434892910567876e-03  2.2728450508534177e-03 
 2.3025849268732334e-03  2.3327139452260651e-03  2.3632371977877252e-03  2.3941598430605444e-03 
 2.4254871070451727e-03  2.4572242841237857e-03  2.4893767379548493e-03  2.5219499023795828e-03 
 2.5549492823403034e-03  2.5883804548107654e-03  2.6222490697386863e-03  2.6565608510005999e-03 
 2.6913215973692044e-03  2.7265371834933700e-03  2.7622135608909677e-03  2.7983567589546948e-03 
 2.8349728859710420e-03  2.8720681301526280e-03  2.9096487606840096e-03  2.9477211287811931e-03 
 2.9862916687650016e-03  3.0253668991484942e-03  3.0649534237386093e-03  3.1050579327522214e-03 
 3.1456872039468103e-03  3.1868481037659029e-03  3.2285475884995386e-03  3.2707927054598865e-03 
 3.3135905941722604e-03  3.3569484875817152e-03  3.4008737132754331e-03  3.4453736947211038e-03 
 3.4904559525215048e-03  3.5361281056855076e-03  3.5823978729156956e-03  3.6292730739128595e-03 
 3.6767616306975356e-03  3.7248715689488479e-03  3.7736110193608676e-03  3.8229882190167186e-03 
 3.8730115127806651e-03  3.9236893547084130e-03  3.9750303094758712e-03  4.0270430538265839e-03 
 4.0797363780381447e-03  4.1331191874077623e-03  4.1872005037572740e-03  4.2419894669578637e-03 
 4.2974953364747145e-03  4.3537274929318845e-03  4.4106954396976516e-03  4.4684088044906149e-03 
 4.5268773410067770e-03  4.5861109305679760e-03  4.6461195837918280e-03  4.7069134422835553e-03 
 4.7685027803499383e-03  4.8308980067356981e-03  4.8941096663825999e-03  4.9581484422115763e-03 
 5.0230251569281636e-03  5.0887507748515522e-03  5.1553364037676104e-03  5.2227932968061047e-03 
 5.2911328543425121e-03  5.3603666259247123e-03  5.4305063122248838e-03  5.5015637670169527e-03 
 5.5735509991799012e-03  5.6464801747273061e-03  5.7203636188634041e-03  5.7952138180661092e-03 
 5.8710434221972375e-03  5.9478652466403671e-03  6.0256922744666734e-03  6.1045376586290967e-03 
 6.1844147241852171e-03  6.2653369705492319e-03  6.3473180737733826e-03  6.4303718888592248e-03 
 6.5145124520991932e-03  6.5997539834487355e-03  6.6861108889295336e-03  6.7735977630641519e-03 
 6.8622293913425452e-03  6.9520207527208463e-03  7.0429870221528383e-03  7.1351435731545707e-03 
 7.2285059804024932e-03  7.3230900223656449e-03  7.4189116839722411e-03  7.5159871593111554e-03 
 7.6143328543687699e-03  7.7139653898016212e-03  7.8149016037453341e-03  7.9171585546603009e-03 
 8.0207535242146147e-03  8.1257040202046844e-03  8.2320277795141297e-03  8.3397427711113352e-03 
 8.4488671990862532e-03  8.5594195057269399e-03  8.6714183746363395e-03  8.7848827338898663e-03 
 8.8998317592342922e-03  9.0162848773284975e-03  9.1342617690265918e-03  9.2537823727040797e-03 
 9.3748668876274515e-03  9.4975357773679232e-03  9.6218097732598245e-03  9.7477098779042426e-03 
 9.8752573687185211e-03  1.0004473801532179e-02  1.0135381014229922e-02  1.0268001130442248e-02 
 1.0402356563284454e-02  1.0538470019144468e-02  1.0676364501520300e-02  1.0816063314907667e-02 
 1.0957590068738530e-02  1.1100968681371134e-02  1.1246223384132269e-02  1.1393378725412434e-02 
 1.1542459574814526e-02  1.1693491127356933e-02  1.1846498907731503e-02  1.2001508774617291e-02 
 1.2158546925050742e-02  1.2317639898853046e-02  1.2478814583115429e-02  1.2642098216743147e-02 
 1.2807518395058920e-02  1.2975103074466582e-02  1.3144880577175827e-02  1.3316879595988705e-02 
 1.3491129199148763e-02  1.3667658835253671e-02  1.3846498338232089e-02  1.4027677932385673e-02 
 1.4211228237497060e-02  1.4397180274004693e-02  1.4585565468245305e-02  1.4776415657765106e-02 
 1.4969763096700369e-02  1.5165640461228456e-02  1.5364080855090185e-02  1.5565117815184420e-02 
 1.5768785317235908e-02  1.5975117781537245e-02  1.6184150078766002e-02  1.6395917535877897e-02 
 1.6610455942077228e-02  1.6827801554865261e-02  1.7047991106167861e-02  1.7271061808543271e-02 
 1.7497051361471127e-02  1.7725997957723741e-02  1.7957940289820801e-02  1.8192917556568496e-02 
 1.8430969469684137e-02  1.8672136260507642e-02  1.8916458686800669e-02  1.9163978039634762e-02 
 1.9414736150369677e-02  1.9668775397722955e-02  1.9926138714932033e-02  2.0186869597010076e-02 
 2.0451012108096734e-02  2.0718610888905028e-02  2.0989711164265845e-02  2.1264358750770967e-02 
 2.1542600064516200e-02  2.1824482128945812e-02  2.2110052582799588e-02  2.2399359688163926e-02 
 2.2692452338628204e-02  2.2989380067547964e-02  2.3290193056416063e-02  2.3594942143343615e-02 
 2.3903678831651634e-02  2.4216455298575273e-02  2.4533324404081878e-02  2.4854339699804454e-02 
 2.5179555438092031e-02  2.5509026581178425e-02  2.5842808810471012e-02  2.6180958535960929e-02 
 2.6523532905756639e-02  2.6870589815741992e-02  2.7222187919360815e-02  2.7578386637529446e-02 
 2.7939246168679051e-02  2.8304827498929267e-02  2.8675192412395033e-02  2.9050403501628252e-02 
 2.9430524178195992e-02  2.9815618683397341e-02  3.0205752099120239e-02  3.0600990358840501e-02 
 3.1001400258764723e-02  3.1407049469119007e-02  3.1818006545585392e-02  3.2234340940887916e-02 
 3.2656123016530328e-02  3.3083424054687234e-02  3.3516316270251131e-02  3.3954872823036782e-02 
 3.4399167830145398e-02  3.4849276378490661e-02  3.5305274537488537e-02  3.5767239371913222e-02 
 3.6235248954921251e-02  3.6709382381246082e-02  3.7189719780565199e-02  3.7676342331042362e-02 
 3.8169332273046815e-02  3.8668772923052111e-02  3.9174748687716823e-02  3.9687345078149451e-02 
 4.0206648724360007e-02  4.0732747389900695e-02  4.1265729986698189e-02  4.1805686590079827e-02 
 4.2352708453996774e-02  4.2906888026445988e-02  4.3468318965094205e-02  4.4037096153106345e-02 
 4.4613315715180894e-02  4.5197075033795317e-02  4.5788472765663869e-02  4.6387608858410853e-02 
 4.6994584567461861e-02  4.7609502473156429e-02  4.8232466498084187e-02  4.8863581924648042e-02 
 4.9502955412857229e-02  5.0150695018353009e-02  5.0806910210670395e-02  5.1471711891738742e-02 
 5.2145212414624498e-02  5.2827525602518924e-02  5.3518766767974811e-02  5.4219052732394316e-02 
 5.4928501845772186e-02  5.5647234006697140e-02  5.6375370682615028e-02  5.7113034930357118e-02 
 5.7860351416936989e-02  5.8617446440619600e-02  5.9384447952265815e-02  6.0161485576956698e-02 
 6.0948690635900242e-02  6.1746196168625027e-02  6.2554136955464246e-02  6.3372649540333822e-02 
 6.4201872253808745e-02  6.5041945236501253e-02  6.5893010462744886e-02  6.6755211764588415e-02 
 6.7628694856104010e-02  6.8513607358013137e-02  6.9410098822634783e-02  7.0318320759160197e-02 
 7.1238426659258322e-02  7.2170572023016188e-02  7.3114914385218902e-02  7.4071613341973361e-02 
 7.5040830577680143e-02  7.6022729892358989e-02  7.7017477229331097e-02  7.8025240703264012e-02 
 7.9046190628583396e-02  8.0080499548256592e-02  8.1128342262952777e-02  8.2189895860584700e-02 
 8.3265339746236983e-02  8.4354855672485921e-02  8.5458627770116244e-02  8.6576842579239505e-02 
 8.7709689080820080e-02  8.8857358728612695e-02  9.0020045481519567e-02  9.1197945836369226e-02 
 9.2391258861125175e-02  9.3600186228528781e-02  9.4824932250182500e-02  9.6065703911079034e-02 
 9.7322710904582180e-02  9.8596165667865679e-02  9.9886283417815483e-02  1.0119328218740187e-01 
 1.0251738286252775e-01  1.0385880921935869e-01  1.0521778796214171e-01  1.0659454876151885e-01 
 1.0798932429334203e-01  1.0940235027799582e-01  1.1083386552023497e-01  1.1228411194954216e-01 
 1.1375333466101586e-01  1.1524178195679123e-01  1.1674970538800387e-01  1.1827735979730268e-01 
 1.1982500336191880e-01  1.2139289763729819e-01  1.2298130760130511e-01  1.2459050169900407e-01 
 1.2622075188802759e-01  1.2787233368453779e-01  1.2954552620978924e-01  1.3124061223730099e-01 
 1.3295787824064620e-01  1.3469761444186670e-01  1.3646011486052123e-01  1.3824567736337548e-01 
 1.4005460371474243e-01  1.4188719962748045e-01  1.4374377481466077e-01  1.4562464304190889e-01 
 1.4753012218043179e-01  1.4946053426073919e-01  1.5141620552706714e-01  1.5339746649251440e-01 
 1.5540465199489972e-01  1.5743810125335028e-01  1.5949815792563055e-01  1.6158517016622129e-01 
 1.6369949068515849e-01  1.6584147680764208e-01  1.6801149053442493e-01  1.7020989860299171e-01 
 1.7243707254953841e-01  1.7469338877176288e-01  1.7697922859247728e-01  1.7929497832405117e-01 
 1.8164102933370119e-01  1.8401777810963185e-01  1.8642562632804316e-01  1.8886498092101495e-01 
 1.9133625414527930e-01  1.9383986365189296e-01  1.9637623255682149e-01  1.9894578951244649e-01 
 2.0154896878000939e-01  2.0418621030300207e-01  2.0685795978151894e-01  2.0956466874758081e-01 
 2.1230679464144525e-01  2.1508480088891480e-01  2.1789915697965717e-01  2.2075033854655021e-01 
 2.2363882744606517e-01  2.2656511183970013e-01  2.2952968627648290e-01  2.3253305177654929e-01 
 2.3557571591581702e-01  2.3865819291176757e-01  2.4178100371034977e-01  2.4494467607402121e-01 
 2.4814974467094114e-01  2.5139675116533089e-01  2.5468624430901621e-01  2.5801878003416756e-01 
 2.6139492154725441e-01  2.6481523942422791e-01  2.6828031170695005e-01  2.7179072400088372e-01 
 2.7534706957406174e-01  2.7894994945735047e-01  2.8259997254602587e-01  2.8629775570267629e-01 
 2.9004392386145678e-01  2.9383911013370251e-01  2.9768395591492636e-01  3.0157911099321638e-01 
 3.0552523365905176e-01  3.0952299081655515e-01  3.1357305809620112e-01  3.1767611996899964e-01 
 3.2183286986217280e-01  3.2604401027634605e-01  3.3031025290427224e-01  3.3463231875110960e-01 
 3.3901093825627321e-01  3.4344685141688097e-01  3.4794080791281490e-01  3.5249356723341890e-01 
 3.5710589880585475e-01  3.6177858212513475e-01  3.6651240688586195e-01  3.7130817311568781e-01 
 3.7616669131051955e-01  3.8108878257149598e-01  3.8607527874375508e-01  3.9112702255701848e-01 
 3.9624486776801415e-01  4.0142967930476364e-01  4.0668233341275717e-01  4.1200371780304074e-01 
 4.1739473180224168e-01  4.2285628650455714e-01  4.2838930492573069e-01  4.3399472215904467e-01 
 4.3967348553335295e-01  4.4542655477318177e-01  4.5125490216092640e-01  4.5715951270116573e-01 
 4.6314138428713542e-01  4.6920152786937097e-01  4.7534096762656142e-01  4.8156074113863828e-01 
 4.8786189956212872e-01  4.9424550780780363e-01  5.0071264472065025e-01  5.0726440326219913e-01 
 5.1390189069523773e-01  5.2062622877094000e-01  5.2743855391844541e-01  5.3434001743691772e-01 
 5.4133178569011786e-01  5.4841504030352162e-01  5.5559097836401750e-01  5.6286081262221721e-01 
 5.7022577169741429e-01  5.7768710028521975e-01  5.8524605936792451e-01  5.9290392642760481e-01 
 6.0066199566201994e-01  6.0852157820333574e-01  6.1648400233970801e-01  6.2455061373976728e-01 
 6.3272277568003954e-01  6.4100186927534308e-01  6.4938929371220055e-01  6.5788646648530480e-01 
 6.6649482363707846e-01  6.7521582000036906e-01  6.8405092944431845e-01  6.9300164512345164e-01 
 7.0206947973002132e-01  7.1125596574965888e-01  7.2056265572036726e-01  7.2999112249490006e-01 
 7.3954295950658389e-01  7.4921978103860831e-01  7.5902322249684362e-01  7.6895494068622960e-01 
 7.7901661409077871e-01  7.8920994315724413e-01  7.9953665058249912e-01  8.0999848160467713e-01 
 8.2059720429812111e-01  8.3133460987219210e-01  8.4221251297398847e-01  8.5323275199502457e-01 
 8.6439718938192434e-01  8.7570771195117858e-01  8.8716623120802163e-01  8.9877468366948021e-01 
 9.1053503119165136e-01  9.2244926130125371e-01  9.3451938753153441e-01  9.4674744976255454e-01 
 9.5913551456593504e-01  9.7168567555411256e-01  9.8440005373416462e-01  9.9728079786626511e-01 
 1.0103300848268297e+00  1.0235501199764132e+00  1.0369431375324214e+00  1.0505114009466974e+00 
 1.0642572032880520e+00  1.0781828676297975e+00  1.0922907474423520e+00  1.1065832269909819e+00 
 1.1210627217387485e+00  1.1357316787547265e+00  1.1505925771275674e+00  1.1656479283844625e+00 
 1.1809002769156092e+00  1.1963522004042120e+00  1.2120063102621166e+00  1.2278652520711482e+00 
 1.2439317060302175e+00  1.2602083874082839e+00  1.2766980470032401e+00  1.2934034716068048e+00 
 1.3103274844754966e+00  1.3274729458077705e+00  1.3448427532274003e+00  1.3624398422731814e+00 
 1.3802671868950449e+00  1.3983277999566635e+00  1.4166247337446300e+00  1.4351610804843031e+00 
 1.4539399728624032e+00  1.4729645845564321e+00  1.4922381307710493e+00  1.5117638687814379e+00 
 1.5315450984837951e+00  1.5515851629530208e+00  1.5718874490077090e+00  1.5924553877825234e+00 
 1.6132924553080710e+00  1.6344021730983580e+00  1.6557881087459336e+00  1.6774538765248233e+00 
 1.6994031380013481e+00  1.7216396026529390e+00  1.7441670284950470e+00  1.7669892227162571e+00 
 1.7901100423217113e+00  1.8135333947849530e+00  1.8372632387083019e+00  1.8613035844918531e+00 
 1.8856584950112663e+00  1.9103320863043858e+00  1.9353285282668660e+00  1.9606520453568923e+00 
 1.9863069173091255e+00  2.0122974798579865e+00  2.0386281254704066e+00  2.0653033040881632e+00 
 2.0923275238799319e+00  2.1197053520031788e+00  2.1474414153760177e+00  2.1755404014591733e+00 
 2.2040070590481724e+00  2.2328461990759005e+00  2.2620626954256626e+00  2.2916614857548794e+00 
 2.3216475723295691e+00  2.3520260228697243e+00  2.3828019714057942e+00  2.4139806191463302e+00 
 2.4455672353570099e+00  2.4775671582511509e+00  2.5099857958918865e+00  2.5428286271061369e+00 
 2.5761012024105456e+00  2.6098091449495322e+00  2.6439581514456139e+00  2.6785539931621654e+00 
 2.7136025168787792e+00  2.7491096458793822e+00  2.7850813809532857e+00  2.8215238014093331e+00 
 2.8584430661033182e+00  2.8958454144788464e+00  2.9337371676218185e+00  2.9721247293286917e+00 
 3.0110145871887659e+00  3.0504133136805813e+00  3.0903275672826873e+00  3.1307640935989429e+00 
 3.1717297264985382e+00  3.2132313892709350e+00  3.2552760957959195e+00  3.2978709517289664e+00 
 3.3410231557021075e+00  3.3847400005405199e+00  3.4290288744950330e+00  3.4738972624907558e+00 
 3.5193527473920505e+00  3.5654030112840558e+00  3.6120558367709714e+00  3.6593191082913434e+00 
 3.7072008134505570e+00  3.7557090443707337e+00  3.8048519990583598e+00  3.8546379827897432e+00 
 3.9050754095146289e+00  3.9561728032781800e+00  4.0079387996615585e+00  4.0603821472413628e+00 
 4.1135117090681526e+00  4.1673364641643307e+00  4.2218655090416171e+00  4.2771080592383788e+00 
 4.3330734508770838e+00  4.3897711422421208e+00  4.4472107153782758e+00  4.5054018777101223e+00 
 4.5643544636825935e+00  4.6240784364230327e+00  4.6845838894249896e+00  4.7458810482540148e+00 
 4.8079802722758496e+00  4.8708920564071576e+00  4.9346270328891926e+00  4.9991959730846762e+00 
 5.0646097892981805e+00  5.1308795366203386e+00  5.1980164147961734e+00  5.2660317701178920e+00 
 5.3349370973424248e+00  5.4047440416340757e+00  5.4754644005325748e+00  5.5471101259469009e+00 
 5.6196933261751694e+00  5.6932262679509762e+00  5.7677213785164954e+00  5.8431912477227179e+00 
 5.9196486301571785e+00  5.9971064472994602e+00  6.0755777897050285e+00  6.1550759192175217e+00 
 6.2356142712100375e+00  6.3172064568557529e+00  6.3998662654282397e+00  6.4836076666318858e+00 
 6.5684448129628050e+00  6.6543920421006488e+00  6.7414638793317048e+00  6.8296750400037043e+00 
 6.9190404320127508e+00  7.0095751583227930e+00  7.1012945195180590e+00  7.1942140163888926e+00 
 7.2883493525514202e+00  7.3837164371015067e+00  7.4803313873034343e+00  7.5782105313137160e+00 
 7.6773704109406644e+00  7.7778277844399453e+00  7.8795996293467807e+00  7.9827031453451829e+00 
 8.0871557571747541e+00  8.1929751175755037e+00  8.3001791102711948e+00  8.4087858529917501e+00 
 8.5188137005351869e+00  8.6302812478696147e+00  8.7432073332758353e+00  8.8576110415310598e+00 
 8.9735117071342732e+00  9.0909289175738195e+00  9.2098825166377249e+00  9.3303926077673545e+00 
 9.4524795574549501e+00  9.5761639986855549e+00  9.7014668344241333e+00  9.8284092411481598e+00 
 9.9570126724265062e+00  1.0087298862545145e+01  1.0219289830180299e+01  1.0353007882119655e+01 
 1.0488475617032249e+01  1.0625715929287708e+01  1.0764752012825447e+01  1.0905607365074507e+01 
 1.1048305790924662e+01  1.1192871406749523e+01  1.1339328644482238e+01  1.1487702255744573e+01 
 1.1638017316029968e+01  1.1790299228941382e+01  1.1944573730484562e+01  1.2100866893417411e+01 
 1.2259205131656481e+01  1.2419615204740897e+01  1.2582124222354800e+01  1.2746759648908954e+01 
 1.2913549308182294e+01  1.3082521388024213e+01  1.3253704445118375e+01  1.3427127409808859e+01 
 1.3602819590989466e+01  1.3780810681056977e+01  1.3961130760929247e+01  1.4143810305128955e+01 
 1.4328880186933867e+01  1.4516371683594492e+01  1.4706316481620014e+01  1.4898746682133387e+01 
 1.5093694806296526e+01  1.5291193800806354e+01  1.5491277043463040e+01  1.5693978348810807e+01 
 1.5899331973852712e+01  1.6107372623840146e+01  1.6318135458138116e+01  1.6531656096167250e+01 
 1.6747970623423576e+01  1.6967115597577052e+01  1.7189128054649895e+01  1.7414045515275760e+01 
 1.7641905991040822e+01  1.7872747990907811e+01  1.8106610527724133e+01  1.8343533124815128e+01 
 1.8583555822663598e+01  1.8826719185676790e+01  1.9073064309041744e+01  1.9322632825670663e+01 
 1.9575466913236859e+01  1.9831609301302890e+01  2.0091103278541997e+01  2.0353992700053944e+01 
 2.0620321994776670e+01  2.0890136172994875e+01  2.1163480833946863e+01  2.1440402173530920e+01 
 2.1720946992112534e+01  2.2005162702433768e+01  2.2293097337626133e+01  2.2584799559328285e+01 
 2.2880318665909968e+01  2.3179704600803564e+01  2.3483007960944633e+01  2.3790280005322973e+01 
 2.4101572663645346e+01  2.4416938545111943e+01  2.4736430947307344e+01  2.5060103865207932e+01 
 2.5388012000307221e+01  2.5720210769860479e+01  2.6056756316250439e+01  2.6397705516475444e+01 
 2.6743115991761826e+01  2.7093046117302013e+01  2.7447555032120100e+01  2.7806702649066452e+01 
 2.8170549664943138e+01  2.8539157570761834e+01  2.8912588662135942e+01  2.9290906049808708e+01 
 2.9674173670319082e+01  3.0062456296807202e+01  3.0455819549960982e+01  3.0854329909106500e+01 
 3.1258054723442950e+01  3.1667062223424850e+01  3.2081421532293184e+01  3.2501202677757369e+01 
 3.2926476603830089e+01  3.3357315182817061e+01  3.3793791227463565e+01  3.4235978503260007e+01 
 3.4683951740908441e+01  3.5137786648952243e+01  3.5597559926571051e+01  3.6063349276543093e+01 
 3.6535233418377125e+01  3.7013292101616251e+01  3.7497606119315769e+01  3.7988257321697446e+01 
 3.8485328629982156e+01  3.8988904050404130e+01  3.9499068688407995e+01  4.0015908763031796e+01 
 4.0539511621478290e+01  4.1069965753876772e+01  4.1607360808238148e+01  4.2151787605605669e+01 
 4.2703338155403856e+01  4.3262105670988390e+01  4.3828184585399313e+01  4.4401670567320494e+01 
 4.4982660537247817e+01  4.5571252683869027e+01  4.6167546480657798e+01  4.6771642702685021e+01 
 4.7383643443650037e+01  4.8003652133134764e+01  4.8631773554083253e+01  4.9268113860510695e+01 
 4.9912780595443458e+01  5.0565882709094083e+01  5.1227530577274244e+01  5.1897836020048437e+01 
 5.2576912320631891e+01  5.3264874244535669e+01  5.3961838058962329e+01  5.4667921552455347e+01 