  <PP_INFO>

############################################################
#    Opium Parameter File                                  #
############################################################
#-----------------------------------------------------------
#Command line   : opium P P.log ae ps nl tc2 ke upf rpt 
 
#Opium version  : 4.1 
#Compile Host   : andes-login5.olcf.ornl.gov 
#Compile OS     : Linux 4.18.0-348.12.2.el8_5.x86_64 x86_64 
#Compile Date   : Thu Jun 30 15:38:05 EDT 2022 
#-----------------------------------------------------------
#Execution Host : andes-login5.olcf.ornl.gov 
#Execution Date : Thu Jun 30 16:18:32 2022
 
#-----------------------------------------------------------
############################################################
[Atom]
P
5
100 2.00 -
200 2.00 -
210 6.00 -
300 2.00 -
310 2.00 -

[KBDesign]
s

[Relativity]
nrl

[Pseudo]
4 -1 -1 -1 -1
g

[xc]
pbe

[Gaussinfo]
13 2
2 3
2 101.982019 25.197230
2 37.485881 189.426261
1 15.073300 13.000000
3 18.113176 195.952906
2 17.371539 -117.611086

[Configs]
16

200 2.00 -
210 6.00 -
300 2.00 -
310 3.00 -

200 2.00 -
210 6.00 -
300 1.00 -
310 4.00 -

200 2.00 -
210 6.00 -
300 2.00 -
310 2.00 -

200 2.00 -
210 6.00 -
300 2.00 -
310 1.00 -

200 2.00 -
210 6.00 -
300 1.00 -
310 3.00 -

200 2.00 -
210 6.00 -
300 2.00 -
310 0.00 -

200 2.00 -
210 6.00 -
300 1.00 -
310 1.00 -

200 2.00 -
210 6.00 -
300 1.00 -
310 0.00 -

200 2.00 -
210 6.00 -
300 0.00 -
310 0.00 -

200 2.00 -
210 5.00 -
300 0.00 -
310 0.00 -

200 2.00 -
210 4.00 -
300 0.00 -
310 0.00 -

200 2.00 -
210 3.00 -
300 0.00 -
310 0.00 -

200 2.00 -
210 2.00 -
300 0.00 -
310 0.00 -

200 2.00 -
210 1.00 -
300 0.00 -
310 0.00 -

200 2.00 -
210 0.50 -
300 0.50 -
310 0.00 -

200 1.00 -
210 0.50 -
300 0.50 -
310 0.00 -
 

############################################################
  </PP_INFO>



<PP_HEADER>
   0         Version Number
   P        Element
   NC        Norm - Conserving pseudopotential
    F      Nonlinear Core Correction
SLA  PW   PBE  PBE     PBE  Exchange-Correlation functional
 13          Z valence
 0          Total energy
 0.000000   0.000000     Suggested cutoff for wfc and rho
 1           Max angular momentum component
 1146           Number of points in mesh
 2  1     Number of Wavefuncitons, Number of Projectors
 Wavefunctions         nl  l   occ
                       S  0  2.000000
                       P  1  6.000000
</PP_HEADER>
<PP_MESH>
  <PP_R>
 4.0548013303822669e-05  4.1078578679606961e-05  4.1616086432959093e-05  4.2160627403968713e-05 
 4.2712293621355976e-05  4.3271178318024673e-05  4.3837375946818680e-05  4.4410982196484887e-05 
 4.4992094007844727e-05  4.5580809590177443e-05  4.6177228437817621e-05  4.6781451346970071e-05 
 4.7393580432744537e-05  4.8013719146413436e-05  4.8641972292895424e-05  4.9278446048467474e-05 
 4.9923247978709171e-05  5.0576487056681436e-05  5.1238273681343213e-05  5.1908719696209189e-05 
 5.2587938408251594e-05  5.3276044607049374e-05  5.3973154584187884e-05  5.4679386152912498e-05 
 5.5394858668039143e-05  5.6119693046125801e-05  5.6854011785907558e-05  5.7597938988999176e-05 
 5.8351600380868607e-05  5.9115123332084860e-05  5.9888636879843940e-05  6.0672271749776468e-05 
 6.1466160378040638e-05  6.2270436933704046e-05  6.3085237341418922e-05  6.3910699304393462e-05 
 6.4746962327664096e-05  6.5594167741672124e-05  6.6452458726148965e-05  6.7321980334313823e-05 
 6.8202879517387992e-05  6.9095305149430113e-05  6.9999408052495932e-05  7.0915341022127998e-05 
 7.1843258853178160e-05  7.2783318365968433e-05  7.3735678432793869e-05  7.4700500004772516e-05 
 7.5677946139046383e-05  7.6668182026338655e-05  7.7671375018870987e-05  7.8687694658646903e-05 
 7.9717312706104455e-05  8.0760403169144248e-05  8.1817142332537201e-05  8.2887708787717084e-05 
 8.3972283462962834e-05  8.5071049653975985e-05  8.6184193054857989e-05  8.7311901789493060e-05 
 8.8454366443341265e-05  8.9611780095648323e-05  9.0784338352076259e-05  9.1972239377761204e-05 
 9.3175683930803811e-05  9.4394875396197877e-05  9.5630019820202829e-05  9.6881325945166172e-05 
 9.8149005244801106e-05  9.9433271959926525e-05  1.0073434313467400e-04  1.0205243865316870e-04 
 1.0338778127669046e-04  1.0474059668132091e-04  1.0611111349608325e-04  1.0749956334158114e-04 
 1.0890618086914313e-04  1.1033120380047923e-04  1.1177487296785666e-04  1.1323743235480058e-04 
 1.1471912913732849e-04  1.1622021372572324e-04  1.1774093980685299e-04  1.1928156438704492e-04 
 1.2084234783551993e-04  1.2242355392839572e-04  1.2402544989326521e-04  1.2564830645435924e-04 
 1.2729239787829917e-04  1.2895800202044876e-04  1.3064540037187230e-04  1.3235487810690742e-04 
 1.3408672413135999e-04  1.3584123113133013e-04  1.3761869562267675e-04  1.3941941800112942e-04 
 1.4124370259305612e-04  1.4309185770689455e-04  1.4496419568525793e-04  1.4686103295772095e-04 
 1.4878269009429727e-04  1.5072949185961673e-04  1.5270176726781123e-04  1.5469984963811911e-04 
 1.5672407665121631e-04  1.5877479040628603e-04  1.6085233747883376e-04  1.6295706897925954e-04 
 1.6508934061219640e-04  1.6724951273662533e-04  1.6943795042677679e-04  1.7165502353382904e-04 
 1.7390110674841410e-04  1.7617657966394109e-04  1.7848182684074878e-04  1.8081723787109636e-04 
 1.8318320744500671e-04  1.8558013541696900e-04  1.8800842687351546e-04  1.9046849220168176e-04 
 1.9296074715836360e-04  1.9548561294058060e-04  1.9804351625665907e-04  2.0063488939834766e-04 
 2.0326017031387498e-04  2.0591980268196426e-04  2.0861423598681579e-04  2.1134392559407118e-04 
 2.1410933282777096e-04  2.1691092504831956e-04  2.1974917573147030e-04  2.2262456454834396e-04 
 2.2553757744649448e-04  2.2848870673203455e-04  2.3147845115283752e-04  2.3450731598282642e-04 
 2.3757581310736655e-04  2.4068446110977522e-04  2.4383378535896376e-04  2.4702431809822618e-04 
 2.5025659853518872e-04  2.5353117293293868e-04  2.5684859470234299e-04  2.6020942449557651e-04 
 2.6361423030087338e-04  2.6706358753851843e-04  2.7055807915809475e-04  2.7409829573700310e-04 
 2.7768483558027153e-04  2.8131830482166972e-04  2.8499931752614787e-04  2.8872849579361366e-04 
 2.9250646986407023e-04  2.9633387822412756e-04  3.0021136771490810e-04  3.0413959364136478e-04 
 3.0811921988302833e-04  3.1215091900620558e-04  3.1623537237764429e-04  3.2037327027968556e-04 
 3.2456531202692347e-04  3.2881220608439087e-04  3.3311467018729127e-04  3.3747343146229853e-04 
 3.4188922655044231e-04  3.4636280173160256e-04  3.5089491305063247e-04  3.5548632644513169e-04 
 3.6013781787489201e-04  3.6485017345303639e-04  3.6962418957887271e-04  3.7446067307248920e-04 
 3.7936044131110753e-04  3.8432432236722234e-04  3.8935315514854597e-04  3.9444778953978780e-04 
 3.9960908654628586e-04  4.0483791843951846e-04  4.1013516890452069e-04  4.1550173318922925e-04 
 4.2093851825578110e-04  4.2644644293379254e-04  4.3202643807564365e-04  4.3767944671379417e-04 
 4.4340642422015876e-04  4.4920833846756679e-04  4.5508616999333511e-04  4.6104091216498180e-04 
 4.6707357134810601e-04  4.7318516707646826e-04  4.7937673222429292e-04  4.8564931318082697e-04 
 4.9200397002718041e-04  4.9844177671548552e-04  5.0496382125039525e-04  5.1157120587295903e-04 
 5.1826504724690426e-04  5.2504647664735520e-04  5.3191664015202081e-04  5.3887669883488534e-04 
 5.4592782896243166e-04  5.5307122219243354e-04  5.6030808577534909e-04  5.6763964275834806e-04 
 5.7506713219201045e-04  5.8259180933972917e-04  5.9021494588985064e-04  5.9793783017059632e-04 
 6.0576176736779053e-04  6.1368807974544217e-04  6.2171810686920711e-04  6.2985320583278234e-04 
 6.3809475148725477e-04  6.4644413667345579e-04  6.5490277245735422e-04  6.6347208836852996e-04 
 6.7215353264176770e-04  6.8094857246181234e-04  6.8985869421132656e-04  6.9888540372209265e-04 
 7.0803022652950296e-04  7.1729470813037708e-04  7.2668041424415607e-04  7.3618893107751254e-04 
 7.4582186559242133e-04  7.5558084577774358e-04  7.6546752092435772e-04  7.7548356190389547e-04 
 7.8563066145112017e-04  7.9591053445000719e-04  8.0632491822356020e-04  8.1687557282742438e-04 
 8.2756428134733923e-04  8.3839285020048497e-04  8.4936310944077058e-04  8.6047691306811807e-04 
 8.7173613934179235e-04  8.8314269109783169e-04  8.9469849607063160e-04  9.0640550721873651e-04 
 9.1826570305489406e-04  9.3028108798043005e-04  9.4245369262399277e-04  9.5478557418474000e-04 
 9.6727881678000649e-04  9.7993553179752673e-04  9.9275785825226129e-04  1.0057479631479004e-03 
 1.0189080418430887e-03  1.0322403184224482e-03  1.0457470460724532e-03  1.0594305074622232e-03 
 1.0732930151293016e-03  1.0873369118704782e-03  1.1015645711377276e-03  1.1159783974393300e-03 
 1.1305808267462359e-03  1.1453743269037536e-03  1.1603613980486198e-03  1.1755445730315295e-03 
 1.1909264178451904e-03  1.2065095320579872e-03  1.2222965492533113e-03  1.2382901374746438e-03 
 1.2544929996764593e-03  1.2709078741810348e-03  1.2875375351412304e-03  1.3043847930093290e-03 
 1.3214524950120085e-03  1.3387435256315293e-03  1.3562608070932210e-03  1.3740072998593435e-03 
 1.3919860031294132e-03  1.4101999553470723e-03  1.4286522347135974e-03  1.4473459597081197e-03 
 1.4662842896146558e-03  1.4854704250560360e-03  1.5049076085348135e-03  1.5245991249812590e-03 
 1.5445483023085196e-03  1.5647585119750456e-03  1.5852331695543713e-03  1.6059757353123598e-03 
 1.6269897147919942e-03  1.6482786594058207e-03  1.6698461670361508e-03  1.6916958826431042e-03 
 1.7138314988806242e-03  1.7362567567205400e-03  1.7589754460848013e-03  1.7819914064859819e-03 
 1.8053085276761706e-03  1.8289307503043454e-03  1.8528620665823538e-03  1.8771065209596065e-03 
 1.9016682108065957e-03  1.9265512871073653e-03  1.9517599551610346e-03  1.9772984752925043e-03 
 2.0031711635724596e-03  2.0293823925467995e-03  2.0559365919756065e-03  2.0828382495817850e-03 
 2.1100919118095004e-03  2.1377021845925340e-03  2.1656737341327011e-03  2.1940112876884499e-03 
 2.2227196343737776e-03  2.2518036259676012e-03  2.2812681777337265e-03  2.3111182692515256e-03 
 2.3413589452575133e-03  2.3719953164979104e-03  2.4030325605923736e-03  2.4344759229090272e-03 
 2.4663307174509408e-03  2.4986023277542091e-03  2.5312962077977830e-03  2.5644178829252067e-03 
 2.5979729507784057e-03  2.6319670822437125e-03  2.6664060224102556e-03  2.7012955915408899e-03 
 2.7366416860558395e-03  2.7724502795292037e-03  2.8087274236985094e-03  2.8454792494874625e-03 
 2.8827119680420970e-03  2.9204318717804623e-03  2.9586453354560685e-03  2.9973588172352290e-03 
 3.0365788597885063e-03  3.0763120913964389e-03  3.1165652270697384e-03  3.1573450696841389e-03 
 3.1986585111301031e-03  3.2405125334775678e-03  3.2829142101559201e-03  3.3258707071494430e-03 
 3.3693892842083678e-03  3.4134772960757961e-03  3.4581421937306678e-03  3.5033915256469927e-03 
 3.5492329390695628e-03  3.5956741813063528e-03  3.6427231010378396e-03  3.6903876496434322e-03 
 3.7386758825452946e-03  3.7875959605697166e-03  3.8371561513263200e-03  3.8873648306052997e-03 
 3.9382304837929571e-03  3.9897617073057449e-03  4.0419672100430858e-03  4.0948558148592006e-03 
 4.1484364600541763e-03  4.2027182008845809e-03  4.2577102110938105e-03  4.3134217844624781e-03 
 4.3698623363790804e-03  4.4270414054312255e-03  4.4849686550176762e-03  4.5436538749814839e-03 
 4.6031069832645028e-03  4.6633380275835296e-03  4.7243571871284137e-03  4.7861747742823499e-03 
 4.8488012363646976e-03  4.9122471573966086e-03  4.9765232598897426e-03  5.0416404066584040e-03 
 5.1076096026553830e-03  5.1744419968318212e-03  5.2421488840213902e-03  5.3107417068491815e-03 
 5.3802320576655091e-03  5.4506316805050543e-03  5.5219524730716358e-03  5.5942064887489484e-03 
 5.6674059386376116e-03  5.7415631936188786e-03  5.8166907864453492e-03  5.8928014138590092e-03 
 5.9699079387370490e-03  6.0480233922656952e-03  6.1271609761425145e-03  6.2073340648075379e-03 
 6.2885562077035677e-03  6.3708411315660735e-03  6.4542027427430312e-03  6.5386551295451454e-03 
 6.6242125646267785e-03  6.7108895073981012e-03  6.7987006064687393e-03  6.8876607021234361e-03 
 6.9777848288300904e-03  7.0690882177806193e-03  7.1615862994650692e-03  7.2552947062793941e-03 
 7.3502292751673921e-03  7.4464060502971432e-03  7.5438412857725600e-03  7.6425514483803459e-03 
 7.7425532203729188e-03  7.8438635022877613e-03  7.9464994158036442e-03  8.0504783066342352e-03 
 8.1558177474595640e-03  8.2625355408958556e-03  8.3706497225041858e-03  8.4801785638385762e-03 
 8.5911405755339006e-03  8.7035545104342353e-03  8.8174393667621344e-03  8.9328143913293759e-03 
 9.0496990827897156e-03  9.1681131949342045e-03  9.2880767400296427e-03  9.4096099922006578e-03 
 9.5327334908561368e-03  9.6574680441603982e-03  9.7838347325498332e-03  9.9118549122955407e-03 
 1.0041550219112599e-02  1.0172942571816550e-02  1.0306054176027724e-02  1.0440907527924061e-02 
 1.0577525418042978e-02  1.0715930935133082e-02  1.0856147470056171e-02  1.0998198719740384e-02 
 1.1142108691185008e-02  1.1287901705517739e-02  1.1435602402105002e-02  1.1585235742716060e-02 
 1.1736827015741629e-02  1.1890401840467631e-02  1.2045986171404980e-02  1.2203606302675909e-02 
 1.2363288872457752e-02  1.2525060867484865e-02  1.2688949627609440e-02  1.2854982850422006e-02 
 1.3023188595932400e-02  1.3193595291311965e-02  1.3366231735697783e-02  1.3541127105059860e-02 
 1.3718310957131883e-02  1.3897813236406568e-02  1.4079664279196347e-02  1.4263894818760274e-02 
 1.4450535990498019e-02  1.4639619337211833e-02  1.4831176814437358e-02  1.5025240795844146e-02 
 1.5221844078706959e-02  1.5421019889448533e-02  1.5622801889254944e-02  1.5827224179764419e-02 
 1.6034321308830601e-02  1.6244128276361212e-02  1.6456680540233120e-02  1.6672014022284836e-02 
 1.6890165114387307e-02  1.7111170684594341e-02  1.7335068083373310e-02  1.7561895149917510e-02 
 1.7791690218541056e-02  1.8024492125157478e-02  1.8260340213843086e-02  1.8499274343486208e-02 
 1.8741334894523461e-02  1.8986562775764063e-02  1.9234999431303624e-02  1.9486686847528235e-02 
 1.9741667560210278e-02  1.9999984661697074e-02  2.0261681808193596e-02  2.0526803227140466e-02 
 2.0795393724688496e-02  2.1067498693271073e-02  2.1343164119275473e-02  2.1622436590814829e-02 
 2.1905363305601524e-02  2.2191992078923747e-02  2.2482371351726396e-02  2.2776550198797711e-02 
 2.3074578337063011e-02  2.3376506133987004e-02  2.3682384616086009e-02  2.3992265477551473e-02 
 2.4306201088986561e-02  2.4624244506256797e-02  2.4946449479456675e-02  2.5272870461993543e-02 
 2.5603562619790365e-02  2.5938581840608887e-02  2.6277984743494805e-02  2.6621828688346547e-02 
 2.6970171785609121e-02  2.7323072906095081e-02  2.7680591690933728e-02  2.8042788561650624e-02 
 2.8409724730378998e-02  2.8781462210204691e-02  2.9158063825646577e-02  2.9539593223274006e-02 
 2.9926114882463290e-02  3.0317694126294727e-02  3.0714397132592559e-02  3.1116290945109034e-02 
 3.1523443484855009e-02  3.1935923561578775e-02  3.2353800885395037e-02  3.2777146078566105e-02 
 3.3206030687437230e-02  3.3640527194528126e-02  3.4080709030782572e-02  3.4526650587978609e-02 
 3.4978427231300777e-02  3.5436115312077091e-02  3.5899792180682510e-02  3.6369536199611453e-02 
 3.6845426756721138e-02  3.7327544278648400e-02  3.7815970244401947e-02  3.8310787199132432e-02 
 3.8812078768082944e-02  3.9319929670721773e-02  3.9834425735060193e-02  4.0355653912157625e-02 
 4.0883702290816566e-02  4.1418660112469821e-02  4.1960617786262498e-02  4.2509666904331431e-02 
 4.3065900257284268e-02  4.3629411849881596e-02  4.4200296916923780e-02  4.4778651939345909e-02 
 4.5364574660523307e-02  4.5958164102790411e-02  4.6559520584175756e-02  4.7168745735355996e-02 
 4.7785942516831735e-02  4.8411215236327937e-02  4.9044669566422457e-02  4.9686412562404761e-02 
 5.0336552680368567e-02  5.0995199795541235e-02  5.1662465220852855e-02  5.2338461725748457e-02 
 5.3023303555246322e-02  5.3717106449245662e-02  5.4419987662086784e-02  5.5132065982367640e-02 
 5.5853461753019161e-02  5.6584296891643585e-02  5.7324694911118794e-02  5.8074780940472311e-02 
 5.8834681746028350e-02  5.9604525752831712e-02  6.0384443066351892e-02  6.1174565494471048e-02 
 6.1975026569760158e-02  6.2785961572046106e-02  6.3607507551274395e-02  6.4439803350670871e-02 
 6.5282989630206581e-02  6.6137208890369628e-02  6.7002605496248091e-02  6.7879325701928173e-02 
 6.8767517675211193e-02  6.9667331522654641e-02  7.0578919314940425e-02  7.1502435112575091e-02 
 7.2438034991926484e-02  7.3385877071601061e-02  7.4346121539166213e-02  7.5318930678222443e-02 
 7.6304468895829702e-02  7.7302902750292307e-02  7.8314400979308113e-02  7.9339134528485261e-02 
 8.0377276580232540e-02  8.1429002583027557e-02  8.2494490281068020e-02  8.3573919744310859e-02 
 8.4667473398904500e-02  8.5775336058019389e-02  8.6897694953081625e-02  8.8034739765415843e-02 
 8.9186662658301621e-02  9.0353658309449539e-02  9.1535923943902184e-02  9.2733659367365717e-02 
 9.3947066999977416e-02  9.5176351910515225e-02  9.6421721851054895e-02  9.7683387292080356e-02 
 9.8961561458054084e-02  1.0025646036345232e-01  1.0156830284927204e-01  1.0289731062001568e-01 
 1.0424370828115966e-01  1.0560772337711327e-01  1.0698958642967420e-01  1.0838953097698741e-01 
 1.0980779361301321e-01  1.1124461402751276e-01  1.1270023504655594e-01  1.1417490267355943e-01 
 1.1566886613086205e-01  1.1718237790184390e-01  1.1871569377359653e-01  1.2026907288015175e-01 
 1.2184277774627576e-01  1.2343707433183647e-01  1.2505223207675142e-01  1.2668852394652377e-01 
 1.2834622647837426e-01  1.3002561982797581e-01  1.3172698781680184e-01  1.3345061798009186e-01 
 1.3519680161544595e-01  1.3696583383205446e-01  1.3875801360057252e-01  1.4057364380364662e-01 
 1.4241303128710239e-01  1.4427648691180245e-01  1.4616432560618262e-01  1.4807686641947543e-01 
 1.5001443257563044e-01  1.5197735152793959e-01  1.5396595501437774e-01  1.5598057911366722e-01 
 1.5802156430207576e-01  1.6008925551095796e-01  1.6218400218504972e-01  1.6430615834152407e-01 
 1.6645608262982270e-01  1.6863413839226735e-01  1.7084069372546581e-01  1.7307612154252133e-01 
 1.7534079963605539e-01  1.7763511074205604e-01  1.7995944260456084e-01  1.8231418804118668e-01 
 1.8469974500951691e-01  1.8711651667435700e-01  1.8956491147587046e-01  1.9204534319860617e-01 
 1.9455823104142891e-01  1.9710399968836512e-01  1.9968307938037519e-01  2.0229590598806566e-01 
 2.0494292108535225e-01  2.0762457202408591e-01  2.1034131200965819e-01  2.1309360017759277e-01 
 2.1588190167114077e-01  2.1870668771989096e-01  2.2156843571940893e-01  2.2446762931191780e-01 
 2.2740475846803501e-01  2.3038031956957866e-01  2.3339481549345700e-01  2.3644875569665602e-01 
 2.3954265630233867e-01  2.4267704018707109e-01  2.4585243706918997e-01  2.4906938359832612e-01 
 2.5232842344609963e-01  2.5563010739800157e-01  2.5897499344647862e-01  2.6236364688523323e-01 
 2.6579664040476225e-01  2.6927455418914142e-01  2.7279797601407807e-01  2.7636750134624666e-01 
 2.7998373344392413e-01  2.8364728345894202e-01  2.8735877053997244e-01  2.9111882193716576e-01 
 2.9492807310815750e-01  2.9878716782546183e-01  3.0269675828527098e-01  3.0665750521767793e-01 
 3.1067007799834118e-01  3.1473515476161107e-01  3.1885342251513565e-01  3.2302557725596742e-01 
 3.2725232408818805e-01  3.3153437734207120e-01  3.3587246069480908e-01  3.4026730729281340e-01 
 3.4471965987561926e-01  3.4923027090141023e-01  3.5379990267418537e-01  3.5842932747259043e-01 
 3.6311932768043481e-01  3.6787069591891636e-01  3.7268423518057603e-01  3.7756075896500574e-01 
 3.8250109141633171e-01  3.8750606746249655e-01  3.9257653295636458e-01  3.9771334481867232e-01 
 4.0291737118285070e-01  4.0818949154174117e-01  4.1353059689623350e-01  4.1894158990584340e-01 
 4.2442338504126892e-01  4.2997690873893502e-01  4.3560309955756471e-01  4.4130290833679719e-01 
 4.4707729835788218e-01  4.5292724550647684e-01  4.5885373843757277e-01  4.6485777874258088e-01 
 4.7094038111860304e-01  4.7710257353991792e-01  4.8334539743171129e-01  4.8966990784607939e-01 
 4.9607717364033527e-01  5.0256827765764800e-01  5.0914431691004602e-01  5.1580640276381451e-01 
 5.2255566112732021e-01  5.2939323264128857e-01  5.3632027287158046e-01  5.4333795250448158e-01 
 5.5044745754455304e-01  5.5764998951506750e-01  5.6494676566107116e-01  5.7233901915509944e-01 
 5.7982799930558715e-01  5.8741497176800417e-01  5.9510121875875444e-01  6.0288803927187340e-01 
 6.1077674929856129e-01  6.1876868204958824e-01  6.2686518818061110e-01  6.3506763602043603e-01 
 6.4337741180227104e-01  6.5179591989800101e-01  6.6032458305553221e-01  6.6896484263923506e-01 
 6.7771815887354492e-01  6.8658601108973927e-01  6.9556989797594893e-01  7.0467133783044023e-01 
 7.1389186881821065e-01  7.2323304923094323e-01  7.3269645775036041e-01  7.4228369371502567e-01 
 7.5199637739063596e-01  7.6183615024384943e-01  7.7180467521969776e-01  7.8190363702262800e-01 
 7.9213474240122139e-01  8.0249972043663775e-01  8.1300032283483503e-01  8.2363832422261074e-01 
 8.3441552244752049e-01  8.4533373888171215e-01  8.5639481872975076e-01  8.6760063134045728e-01 
 8.7895307052283378e-01  8.9045405486612206e-01  9.0210552806404942e-01  9.1390945924331790e-01 
 9.2586784329639149e-01  9.3798270121863725e-01  9.5025608044987864e-01  9.6269005522041728e-01 
 9.7528672690158369e-01  9.8804822436087336e-01  1.0009767043217301e+00  1.0140743517280388e+00 
 1.0273433801133847e+00  1.0407860319751461e+00  1.0544045791534848e+00  1.0682013232152834e+00 
 1.0821785958431278e+00  1.0963387592293594e+00  1.1106842064752935e+00  1.1252173619956574e+00 
 1.1399406819283249e+00  1.1548566545494074e+00  1.1699678006937790e+00  1.1852766741811047e+00 
 1.2007858622474401e+00  1.2164979859824818e+00  1.2324157007725374e+00  1.2485416967492922e+00 
 1.2648786992444476e+00  1.2814294692503090e+00  1.2981968038863998e+00  1.3151835368721814e+00 
 1.3323925390059610e+00  1.3498267186500530e+00  1.3674890222223153e+00  1.3853824346940893e+00 
 1.4035099800946709e+00  1.4218747220223777e+00  1.4404797641623059e+00  1.4593282508108589e+00 
 1.4784233674071412e+00  1.4977683410713059e+00  1.5173664411499450e+00  1.5372209797686174e+00 
 1.5573353123916056e+00  1.5777128383889967e+00  1.5983570016111845e+00  1.6192712909708891e+00 
 1.6404592410327898e+00  1.6619244326108769e+00  1.6836704933736191e+00  1.7057010984570373e+00 
 1.7280199710858282e+00  1.7506308832025872e+00  1.7735376561052787e+00  1.7967441610930426e+00 
 1.8202543201204568e+00  1.8440721064603522e+00  1.8682015453753096e+00  1.8926467147979360e+00 
 1.9174117460200450e+00  1.9425008243908575e+00  1.9679181900243314e+00  1.9936681385157553e+00 
 2.0197550216677116e+00  2.0461832482255415e+00  2.0729572846224360e+00  2.1000816557342707e+00 
 2.1275609456443254e+00  2.1553997984179913e+00  2.1836029188876500e+00  2.2121750734477872e+00 
 2.2411210908605268e+00  2.2704458630717075e+00  2.3001543460376284e+00  2.3302515605626186e+00 
 2.3607425931475690e+00  2.3916325968495564e+00  2.4229267921527287e+00  2.4546304678505750e+00 
 2.4867489819397455e+00  2.5192877625255670e+00  2.5522523087394045e+00  2.5856481916680263e+00 
 2.6194810552951324e+00  2.6537566174552016e+00  2.6884806707998234e+00  2.7236590837766497e+00 
 2.7592978016212064e+00  2.7954028473616321e+00  2.8319803228365918e+00  2.8690364097264980e+00 
 2.9065773705982321e+00  2.9446095499635323e+00  2.9831393753512319e+00  3.0221733583935264e+00 
 3.0617180959264543e+00  3.1017802711047793e+00  3.1423666545314579e+00  3.1834841054018890e+00 
 3.2251395726631333e+00  3.2673400961883012e+00  3.3100928079663112e+00  3.3534049333072087e+00 
 3.3972837920632686e+00  3.4417367998660455e+00  3.4867714693796668e+00  3.5323954115704663e+00 
 3.5786163369932638e+00  3.6254420570944661e+00  3.6728804855322204e+00  3.7209396395138410e+00 
 3.7696276411507350e+00  3.8189527188310626e+00  3.8689232086103491e+00  3.9195475556203023e+00 
 3.9708343154960577e+00  4.0227921558221018e+00  4.0754298575971140e+00  4.1287563167179782e+00 
 4.1827805454832072e+00  4.2375116741160443e+00  4.2929589523075027e+00  4.3491317507795513e+00 
 4.4060395628688358e+00  4.4636920061310450e+00  4.5220988239663109e+00  4.5812698872658579e+00 
 4.6412151960802195e+00  4.7019448813092595e+00  4.7634692064143245e+00  4.8257985691527905e+00 
 4.8889435033353106e+00  4.9529146806060540e+00  5.0177229122462341e+00  5.0833791510012514e+00 
 5.1498944929317219e+00  5.2172801792887444e+00  5.2855475984136984e+00  5.3547082876628993e+00 
 5.4247739353574485e+00  5.4957563827585494e+00  5.5676676260687694e+00  5.6405198184593823e+00 
 5.7143252721242979e+00  5.7890964603608488e+00  5.8648460196778105e+00  5.9415867519309984e+00 
 6.0193316264868146e+00  6.0980937824140984e+00  6.1778865307046633e+00  6.2587233565228839e+00 
 6.3406179214847249e+00  6.4235840659665806e+00  6.5076358114443362e+00  6.5927873628630298e+00 
 6.6790531110375175e+00  6.7664476350845630e+00  6.8549857048867500e+00  6.9446822835885804e+00 
 7.0355525301253534e+00  7.1276118017850125e+00  7.2208756568035799e+00  7.3153598569945286e+00 
 7.4110803704125736e+00  7.5080533740523068e+00  7.6062952565821478e+00  7.7058226211140699e+00 
 7.8066522880095635e+00  7.9088012977223192e+00  8.0122869136781016e+00  8.1171266251923129e+00 
 8.2233381504257288e+00  8.3309394393789074e+00  8.4399486769257823e+00  8.5503842858869525e+00 
 8.6622649301431931e+00  8.7756095177896416e+00  8.8904372043313984e+00  9.0067673959207859e+00 
 9.1246197526370629e+00  9.2440141918090131e+00  9.3649708913810272e+00  9.4875102933232203e+00 
 9.6116531070861768e+00  9.7374203131008965e+00  9.8648331663245319e+00  9.9939131998325319e+00 
 1.0124682228457788e+01  1.0257162352477373e+01  1.0391375961347567e+01  1.0527345737487709e+01 
 1.0665094660113587e+01  1.0804646009120979e+01  1.0946023369020036e+01  1.1089250632921035e+01 
 1.1234352006572486e+01  1.1381352012451892e+01  1.1530275493910121e+01  1.1681147619369991e+01 
 1.1833993886579798e+01  1.1988840126922485e+01  1.2145712509781221e+01  1.2304637546962082e+01 
 1.2465642097174607e+01  1.2628753370570989e+01  1.2793998933344652e+01  1.2961406712389005e+01 
 1.3131005000017154e+01  1.3302822458743369e+01  1.3476888126127115e+01  1.3653231419680473e+01 
 1.3831882141839795e+01  1.4012870485002280e+01  1.4196227036628718e+01  1.4381982784412740e+01 
 1.4570169121517837e+01  1.4760817851882884e+01  1.4953961195597072e+01  1.5149631794345193e+01 
 1.5347862716924146e+01  1.5548687464831657e+01  1.5752139977928104e+01  1.5958254640172440e+01 
 1.6167066285433155e+01  1.6378610203375288e+01  1.6592922145424470e+01  1.6810038330808986e+01 
 1.7029995452680929e+01  1.7252830684317409e+01  1.7478581685402975e+01  1.7707286608394060e+01 
 1.7938984104967020e+01  1.8173713332550239e+01  1.8411513960941853e+01  1.8652426179014050e+01 
 1.8896490701505076e+01  1.9143748775900136e+01  1.9394242189402295e+01  1.9648013275994639e+01 
 1.9905104923594799e+01  2.0165560581303115e+01  2.0429424266745663e+01  2.0696740573513292e+01 
 2.0967554678698093e+01  2.1241912350528402e+01  2.1519859956103755e+01  2.1801444469231040e+01 
 2.2086713478363208e+01  2.2375715194641700e+01  2.2668498460044450e+01  2.2965112755640167e+01 
 2.3265608209950777e+01  2.3570035607423268e+01  2.3878446397012379e+01  2.4190892700875597e+01 
 2.4507427323181926e+01  2.4828103759035923e+01  2.5152976203518485e+01  2.5482099560845956e+01 
 2.5815529453649074e+01  2.6153322232373316e+01  2.6495534984802266e+01  2.6842225545705585e+01 
 2.7193452506613220e+01  2.7549275225717569e+01  2.7909753837904962e+01  2.8274949264918867e+01 
 2.8644923225655660e+01  2.9019738246595281e+01  2.9399457672368353e+01  2.9784145676461616e+01 
 3.0173867272063351e+01  3.0568688323050779e+01  3.0968675555121244e+01  3.1373896567068968e+01 
 3.1784419842209434e+01  3.2200314759953223e+01  3.2621651607531319e+01  3.3048501591873766e+01 
 3.3480936851643868e+01  3.3919030469429771e+01  3.4362856484095587e+01  3.4812489903294185e+01 
 3.5268006716143489e+01  3.5729483906069078e+01  3.6196999463814429e+01  3.6670632400621521e+01 
 3.7150462761583967e+01  3.7636571639174818e+01  3.8129041186951369e+01  3.8627954633439330e+01 
 3.9133396296198605e+01  3.9645451596073208e+01  4.0164207071627551e+01  4.0689750393771710e+01 
 4.1222170380577950e+01  4.1761557012291263e+01  4.2308001446536196e+01  4.2861596033722734e+01 
 4.3422434332653708e+01  4.3990611126336582e+01  4.4566222438001638e+01  4.5149365547330632e+01 
 4.5740139006896989e+01  4.6338642658821456e+01  4.6944977651645736e+01  4.7559246457426717e+01 
 4.8181552889054615e+01  4.8812002117797519e+01  4.9450700691075617e+01  5.0097756550467956e+01 
 5.0753279049954834e+01  5.1417378974398872e+01  5.2090168558267919e+01  5.2771761504602949e+01 
 5.3462273004234156e+01  5.4161819755248459e+01  5.4870519982711777e+01  5.5588493458649410e+01 
 5.6315861522287449e+01  5.7052747100559955e+01  5.7799274728883510e+01  5.8555570572204118e+01 
 5.9321762446319347e+01  6.0097979839479535e+01  6.0884353934271608e+01  6.1681017629789224e+01 
 6.2488105564093054e+01  6.3305754136964957e+01  6.4134101532959832e+01  6.4973287744759133e+01 
 6.5823454596830018e+01  6.6684745769393942e+01  6.7557306822709066e+01  6.8441285221670128e+01 
 6.9336830360730545e+01  7.0244093589150410e+01  7.1163228236574454e+01  7.2094389638945842e+01 
 7.3037735164757848e+01  7.3993424241649564e+01  7.4961618383349631e+01  7.5942481216972382e+01 
 7.6936178510671255e+01  7.7942878201653983e+01  7.8962750424564376e+01  7.9995967540235512e+01 
 8.1042704164819085e+01  8.2103137199295986e+01  8.3177445859372980e+01  8.4265811705770574e+01 
 8.5368418674907218e+01  8.6485453109985031e+01  8.7617103792482169e+01  8.8763561974057595e+01 
 8.9925021408872311e+01  9.1101678386335408e+01  9.2293731764276586e+01  9.3501383002553936e+01 
 9.4724836197101055e+01  9.5964298114419776e+01  9.7219978226524120e+01  9.8492088746341722e+01 
 9.9780844663578151e+01  1.0108646378105077e+02  1.0240916675149796e+02  1.0374917711486988e+02 