  <PP_INFO>

############################################################
#    Opium Parameter File                                  #
############################################################
#-----------------------------------------------------------
#Command line   : opium He He.log ae ps nl tc2 ke upf qmcpack rpt 
 
#Opium version  : 4.1 
#Compile Host   : py-garuda.cos.ncsu.edu 
#Compile OS     : Linux 5.15.0-113-generic x86_64 
#Compile Date   : Sat Jul 13 02:11:52 EDT 2024 
#-----------------------------------------------------------
#Execution Host : py-garuda.cos.ncsu.edu 
#Execution Date : Mon Jan 20 22:26:47 2025
 
#-----------------------------------------------------------
############################################################
[Atom]
He  
3
100   1.90  -
200   0.10  -
210   0.00  -

[Pseudo]
3  0.683595  0.683595  0.683595
g

[Gaussinfo]
2 2
1 3
2  1.000000   0.000000
1 32.000000   2.000000
3 32.000000  64.000000
2 33.713355 -27.700840

[XC]
pbe

[KBDesign]
p

[Relativity]
nrl

[Configs]
3

100   1.00  -
200   1.00  -
210   0.00  -

100   1.00  -
200   0.00  -
210   1.00  -

100   1.00  -
200   0.00  -
210   0.00  -

############################################################
############################################################
  </PP_INFO>



<PP_HEADER>
   0         Version Number
   He        Element
   NC        Norm - Conserving pseudopotential
    F      Nonlinear Core Correction
SLA  PW   PBE  PBE     PBE  Exchange-Correlation functional
 2          Z valence
 0          Total energy
 0.000000   0.000000     Suggested cutoff for wfc and rho
 1           Max angular momentum component
 1094           Number of points in mesh
 2  1     Number of Wavefuncitons, Number of Projectors
 Wavefunctions         nl  l   occ
                      1S  0  1.900000
                      2P  1  0.000000
</PP_HEADER>
<PP_MESH>
  <PP_R>
 7.9370052598410010e-05  8.0408599209001272e-05  8.1460735064239101e-05  8.2526637977587211e-05 
 8.3606488089174924e-05  8.4700467896241228e-05  8.5808762283977316e-05  8.6931558556772542e-05 
 8.8069046469869389e-05  8.9221418261432642e-05  9.0388868685037534e-05  9.1571595042584455e-05 
 9.2769797217642818e-05  9.3983677709232061e-05  9.5213441666044406e-05  9.6459296921115508e-05 
 9.7721454026948736e-05  9.9000126291099046e-05  1.0029552981222242e-04  1.0160788351659713e-04 
 1.0293740919512273e-04  1.0428433154080329e-04  1.0564887818672106e-04  1.0703127974450694e-04 
 1.0843176984331443e-04  1.0985058516930354e-04  1.1128796550564128e-04  1.1274415377302561e-04 
 1.1421939607073976e-04  1.1571394171824289e-04  1.1722804329730678e-04  1.1876195669470198e-04 
 1.2031594114544355e-04  1.2189025927660226e-04  1.2348517715168934e-04  1.2510096431562172e-04 
 1.2673789384027583e-04  1.2839624237063742e-04  1.3007629017155510e-04  1.3177832117510592e-04 
 1.3350262302858052e-04  1.3524948714309606e-04  1.3701920874284568e-04  1.3881208691499182e-04 
 1.4062842466021277e-04  1.4246852894391081e-04  1.4433271074808899e-04  1.4622128512390944e-04 
 1.4813457124493660e-04  1.5007289246107879e-04  1.5203657635323489e-04  1.5402595478865644e-04 
 1.5604136397703397e-04  1.5808314452731714e-04  1.6015164150527862e-04  1.6224720449183088e-04 
 1.6437018764210631e-04  1.6652094974531017e-04  1.6869985428535699e-04  1.7090726950230015e-04 
 1.7314356845456489e-04  1.7540912908199690e-04  1.7770433426973444e-04  1.8002957191291710e-04 
 1.8238523498224083e-04  1.8477172159037106e-04  1.8718943505922463e-04  1.8963878398813234e-04 
 1.9212018232289254e-04  1.9463404942572993e-04  1.9718081014616812e-04  1.9976089489283041e-04 
 2.0237473970617986e-04  2.0502278633221111e-04  2.0770548229710655e-04  2.1042328098286938e-04 
 2.1317664170394604e-04  2.1596602978485172e-04  2.1879191663881127e-04  2.2165477984742853e-04 
 2.2455510324139978e-04  2.2749337698228173e-04  2.3047009764532993e-04  2.3348576830342131e-04 
 2.3654089861207471e-04  2.3963600489558396e-04  2.4277161023427722e-04  2.4594824455292003e-04 
 2.4916644471027283e-04  2.5242675458982198e-04  2.5572972519169684e-04  2.5907591472579061e-04 
 2.6246588870609881e-04  2.6590022004629251e-04  2.6937948915654229e-04  2.7290428404160878e-04 
 2.7647520040021713e-04  2.8009284172573058e-04  2.8375781940814376e-04  2.8747075283740798e-04 
 2.9123226950810989e-04  2.9504300512551968e-04  2.9890360371302656e-04  3.0281471772098073e-04 
 3.0677700813695779e-04  3.1079114459746897e-04  3.1485780550113008e-04  3.1897767812331289e-04 
 3.2315145873229633e-04  3.2737985270693722e-04  3.3166357465588131e-04  3.3600334853833369e-04 
 3.4039990778640943e-04  3.4485399542908584e-04  3.4936636421777594e-04  3.5393777675354432e-04 
 3.5856900561599014e-04  3.6326083349381397e-04  3.6801405331709423e-04  3.7282946839129410e-04 
 3.7770789253302234e-04  3.8265015020757029e-04  3.8765707666824734e-04  3.9272951809754271e-04 
 3.9786833175013074e-04  4.0307438609774970e-04  4.0834856097597525e-04  4.1369174773291480e-04 
 4.1910484937984755e-04  4.2458878074383562e-04  4.3014446862233178e-04  4.3577285193981054e-04 
 4.4147488190644904e-04  4.4725152217888229e-04  4.5310374902306569e-04  4.5903255147926471e-04 
 4.6503893152920558e-04  4.7112390426541260e-04  4.7728849806276088e-04  4.8353375475227502e-04 
 4.8986072979719897e-04  4.9627049247137460e-04  5.0276412603994969e-04  5.0934272794245271e-04 
 5.1600740997826300e-04  5.2275929849450724e-04  5.2959953457641467e-04  5.3652927424016367e-04 
 5.4354968862825083e-04  5.5066196420741696e-04  5.5786730296916351e-04  5.6516692263288934e-04 
 5.7256205685169217e-04  5.8005395542085601e-04  5.8764388448907052e-04  5.9533312677241350e-04 
 6.0312298177113096e-04  6.1101476598925868e-04  6.1900981315711294e-04  6.2710947445669392e-04 
 6.3531511875003933e-04  6.4362813281056499e-04  6.5204992155743283e-04  6.6058190829298567e-04 
 6.6922553494328896e-04  6.7798226230181920e-04  6.8685357027634174e-04  6.9584095813901895e-04 
 7.0494594477979043e-04  7.1417006896306993e-04  7.2351488958779739e-04  7.3298198595090063e-04 
 7.4257295801419753e-04  7.5228942667479506e-04  7.6213303403902162e-04  7.7210544369995106e-04 
 7.8220834101855135e-04  7.9244343340851545e-04  8.0281245062481749e-04  8.1331714505604653e-04 
 8.2395929202056352e-04  8.3474069006653478e-04  8.4566316127589083e-04  8.5672855157226265e-04 
 8.6793873103294702e-04  8.7929559420495411e-04  8.9080106042519044e-04  9.0245707414483216e-04 
 9.1426560525793865e-04  9.2622864943437430e-04  9.3834822845707822e-04  9.5062639056375168e-04 
 9.6306521079301242e-04  9.7566679133508549e-04  9.8843326188707554e-04  1.0013667800128914e-03 
 1.0144695315078792e-03  1.0277437307682274e-03  1.0411916211652051e-03  1.0548154754242962e-03 
 1.0686175960092970e-03  1.0826003155114368e-03  1.0967659970435913e-03  1.1111170346396555e-03 
 1.1256558536591398e-03  1.1403849111970633e-03  1.1553066964992045e-03  1.1704237313827958e-03 
 1.1857385706627124e-03  1.2012538025832447e-03  1.2169720492555126e-03  1.2328959671006161e-03 
 1.2490282472985711e-03  1.2653716162431277e-03  1.2819288360025362e-03  1.2987027047863438e-03 
 1.3156960574182985e-03  1.3329117658154406e-03  1.3503527394734644e-03  1.3680219259584296e-03 
 1.3859223114049061e-03  1.4040569210206394e-03  1.4224288195978164e-03  1.4410411120310248e-03 
 1.4598969438419825e-03  1.4789995017111454e-03  1.4983520140162594e-03  1.5179577513779663e-03 
 1.5378200272125411e-03  1.5579421982918750e-03  1.5783276653107735e-03  1.5989798734616823e-03 
 1.6199023130169326e-03  1.6410985199186070e-03  1.6625720763761209e-03  1.6843266114716247e-03 
 1.7063658017733277e-03  1.7286933719568459e-03  1.7513130954346823e-03  1.7742287949939416e-03 
 1.7974443434423913e-03  1.8209636642629757e-03  1.8447907322768887e-03  1.8689295743153367e-03 
 1.8933842699000772e-03  1.9181589519328705e-03  1.9432578073939424e-03  1.9686850780496054e-03 
 1.9944450611691198e-03  2.0205421102509440e-03  2.0469806357584865e-03  2.0737651058654839e-03 
 2.1009000472111340e-03  2.1283900456651084e-03  2.1562397471025741e-03  2.1844538581893597e-03 
 2.2130371471773907e-03  2.2419944447105368e-03  2.2713306446410031e-03  2.3010507048564022e-03 
 2.3311596481176435e-03  2.3616625629078020e-03  2.3925646042920771e-03  2.4238709947890153e-03 
 2.4555870252531181e-03  2.4877180557690230e-03  2.5202695165573628e-03  2.5532469088924859e-03 
 2.5866558060321865e-03  2.6205018541595980e-03  2.6547907733374099e-03  2.6895283584745747e-03 
 2.7247204803056597e-03  2.7603730863830145e-03  2.7964922020819231e-03  2.8330839316189050e-03 
 2.8701544590833449e-03  2.9077100494826176e-03  2.9457570498008815e-03  2.9843018900717485e-03 
 3.0233510844649646e-03  3.0629112323873266e-03  3.1029890195979838e-03  3.1435912193383676e-03 
 3.1847246934768704e-03  3.2263963936685239e-03  3.2686133625298426e-03  3.3113827348290451e-03 
 3.3547117386918449e-03  3.3986076968230221e-03  3.4430780277439777e-03  3.4881302470464804e-03 
 3.5337719686628216e-03  3.5800109061525859e-03  3.6268548740062624e-03  3.6743117889659147e-03 
 3.7223896713631166e-03  3.7710966464744259e-03  3.8204409458945645e-03  3.8704309089275819e-03 
 3.9210749839962049e-03  3.9723817300696606e-03  4.0243598181101507e-03  4.0770180325382672e-03 
 4.1303652727175798e-03  4.1844105544586513e-03  4.2391630115427275e-03  4.2946318972653733e-03 
 4.3508265860002955e-03  4.4077565747836405e-03  4.4654314849190144e-03  4.5238610636034954e-03 
 4.5830551855749512e-03  4.6430238547808846e-03  4.7037772060691220e-03  4.7653255069006299e-03 
 4.8276791590847390e-03  4.8908487005370777e-03  4.9548448070604999e-03  5.0196782941493295e-03 
 5.0853601188171858e-03  5.1519013814487723e-03  5.2193133276758463e-03  5.2876073502777683e-03 
 5.3567949911069047e-03  5.4268879430392275e-03  5.4978980519504433e-03  5.5698373187179672e-03 
 5.6427179012491111e-03  5.7165521165357756e-03  5.7913524427360826e-03  5.8671315212831905e-03 
 5.9439021590217351e-03  6.0216773303722179e-03  6.1004701795237069e-03  6.1802940226552451e-03 
 6.2611623501863103e-03  6.3430888290567341e-03  6.4260873050364280e-03  6.5101718050653819e-03 
 6.5953565396242317e-03  6.6816559051358637e-03  6.7690844863984518e-03  6.8576570590503164e-03 
 6.9473885920670478e-03  7.0382942502912960e-03  7.1303893969956707e-03  7.2236895964791483e-03 
 7.3182106166975102e-03  7.4139684319281434e-03  7.5109792254697350e-03  7.6092593923772879e-03 
 7.7088255422329260e-03  7.8096945019529521e-03  7.9118833186316365e-03  8.0154092624222240e-03 
 8.1202898294556042e-03  8.2265427447972377e-03  8.3341859654427076e-03  8.4432376833525093e-03 
 8.5537163285265179e-03  8.6656405721187192e-03  8.7790293295926733e-03  8.8939017639182664e-03 
 9.0102772888103165e-03  9.1281755720094993e-03  9.2476165386062934e-03  9.3686203744083336e-03 
 9.4912075293518711e-03  9.6153987209578618e-03  9.7412149378332726e-03  9.8686774432182114e-03 
 9.9978077785794622e-03  1.0128627767251050e-02  1.0261159518122408e-02  1.0395425429374883e-02 
 1.0531448192267040e-02  1.0669250794969555e-02  1.0808856526450269e-02  1.0950288980410077e-02 
 1.1093572059270321e-02  1.1238729978212358e-02  1.1385787269269986e-02  1.1534768785475387e-02 
 1.1685699705059397e-02  1.1838605535706660e-02  1.1993512118866482e-02  1.2150445634120113e-02 
 1.2309432603605145e-02  1.2470499896497829e-02  1.2633674733554014e-02  1.2798984691709552e-02 
 1.2966457708740798e-02  1.3136122087986245e-02  1.3308006503129802e-02  1.3482140003046731e-02 
 1.3658552016712974e-02  1.3837272358178715e-02  1.4018331231607038e-02  1.4201759236378484e-02 
 1.4387587372262452e-02  1.4575847044656171e-02  1.4766570069892361e-02  1.4959788680616228e-02 
 1.5155535531232864e-02  1.5353843703425921e-02  1.5554746711748488e-02  1.5758278509287144e-02 
 1.5964473493400095e-02  1.6173366511530438e-02  1.6384992867095390e-02  1.6599388325452751e-02 
 1.6816589119945262e-02  1.7036631958024157e-02  1.7259554027452786e-02  1.7485393002591464e-02 
 1.7714187050764506e-02  1.7945974838710608e-02  1.8180795539117622e-02  1.8418688837242785e-02 
 1.8659694937619702e-02  1.8903854570852956e-02  1.9151209000501688e-02  1.9401800030053235e-02 
 1.9655670009988021e-02  1.9912861844936888e-02  2.0173419000932093e-02  2.0437385512753158e-02 
 2.0704805991368817e-02  2.0975725631476455e-02  2.1250190219140073e-02  2.1528246139528234e-02 
 2.1809940384753281e-02  2.2095320561813122e-02  2.2384434900636907e-02  2.2677332262236023e-02 
 2.2974062146961721e-02  2.3274674702870722e-02  2.3579220734200490e-02  2.3887751709955163e-02 
 2.4200319772603979e-02  2.4516977746893466e-02  2.4837779148774958e-02  2.5162778194448909e-02 
 2.5492029809527569e-02  2.5825589638317558e-02  2.6163514053223803e-02  2.6505860164276737e-02 
 2.6852685828783942e-02  2.7204049661108207e-02  2.7560011042573464e-02  2.7920630131500413e-02 
 2.8285967873373383e-02  2.8656086011140294e-02  2.9031047095647369e-02  2.9410914496210284e-02 
 2.9795752411323883e-02  3.0185625879511766e-02  3.0580600790317998e-02  3.0980743895442583e-02 
 3.1386122820022663e-02  3.1796806074061337e-02  3.2212863064005996e-02  3.2634364104478238e-02 
 3.3061380430157050e-02  3.3493984207817844e-02  3.3932248548528679e-02  3.4376247520006245e-02 
 3.4826056159133492e-02  3.5281750484641015e-02  3.5743407509954424e-02  3.6211105256209783e-02 
 3.6684922765439401e-02  3.7164940113930019e-02  3.7651238425756038e-02  3.8143899886489599e-02 
 3.8643007757090155e-02  3.9148646387975751e-02  3.9660901233278485e-02  4.0179858865286418e-02 
 4.0705606989074543e-02  4.1238234457327133e-02  4.1777831285353964e-02  4.2324488666303305e-02 
 4.2878298986573624e-02  4.3439355841427177e-02  4.4007754050807799e-02  4.4583589675365715e-02 
 4.5166960032692029e-02  4.5757963713765601e-02  4.6356700599615219e-02  4.6963271878199569e-02 
 4.7577780061508458e-02  4.8200329002887468e-02  4.8831023914589405e-02  4.9469971385555471e-02 
 5.0117279399429018e-02  5.0773057352805032e-02  5.1437416073718469e-02  5.2110467840374430e-02 
 5.2792326400123324e-02  5.3483106988684685e-02  5.4182926349622101e-02  5.4891902754073206e-02 
 5.5610156020737794e-02  5.6337807536127438e-02  5.7074980275080116e-02  5.7821798821543258e-02 
 5.8578389389628761e-02  5.9344879844943306e-02  6.0121399726198191e-02  6.0908080267101553e-02 
 6.1705054418537186e-02  6.2512456871033545e-02  6.3330424077526801e-02  6.4159094276421691e-02 
 6.4998607514954163e-02  6.5849105672859676e-02  6.6710732486351093e-02  6.7583633572410706e-02 
 6.8467956453399648e-02  6.9363850581989558e-02  7.0271467366420509e-02  7.1190960196089267e-02 
 7.2122484467472547e-02  7.3066197610389308e-02  7.4022259114606914e-02  7.4990830556794966e-02 
 7.5972075627832550e-02  7.6966160160472114e-02  7.7973252157365711e-02  7.8993521819457790e-02 
 8.0027141574749577e-02  8.1074286107439830e-02  8.2135132387446894e-02  8.3209859700317065e-02 
 8.4298649677524040e-02  8.5401686327165452e-02  8.6519156065060429e-02  8.7651247746254365e-02 
 8.8798152696935861e-02  8.9960064746771345e-02  9.1137180261662676e-02  9.2329698176933553e-02 
 9.3537820030950014e-02  9.4761749999180675e-02  9.6001694928703349e-02  9.7257864373162278e-02 
 9.8530470628183403e-02  9.9819728767252758e-02  1.0112585667806437e-01  1.0244907509934391e-01 
 1.0378960765815394e-01  1.0514768090768760e-01  1.0652352436555622e-01  1.0791737055257891e-01 
 1.0932945503207876e-01  1.1076001644969373e-01  1.1220929657370823e-01  1.1367754033591268e-01 
 1.1516499587299744e-01  1.1667191456848858e-01  1.1819855109523233e-01  1.1974516345843506e-01 
 1.2131201303926734e-01  1.2289936463903757e-01  1.2450748652394419e-01  1.2613665047041323e-01 
 1.2778713181102916e-01  1.2945920948106693e-01  1.3115316606563240e-01  1.3286928784742033e-01 
 1.3460786485509613e-01  1.3636919091231217e-01  1.3815356368736426e-01  1.3996128474349834e-01 
 1.4179265958987550e-01  1.4364799773320355e-01  1.4552761273004469e-01  1.4743182223980697e-01 
 1.4936094807842992e-01  1.5131531627277151e-01  1.5329525711570829e-01  1.5530110522195514e-01 
 1.5733319958461620e-01  1.5939188363247525e-01  1.6147750528803631e-01  1.6359041702632313e-01 
 1.6573097593444844e-01  1.6789954377196253e-01  1.7009648703199112e-01  1.7232217700317420e-01 
 1.7457698983241429e-01  1.7686130658844615e-01  1.7917551332623849e-01  1.8152000115223804e-01 
 1.8389516629046745e-01  1.8630141014948826e-01  1.8873913939023984e-01  1.9120876599476566e-01 
 1.9371070733583992e-01  1.9624538624750418e-01  1.9881323109652727e-01  2.0141467585480041e-01 
 2.0405016017267941e-01  2.0672012945328672e-01  2.0942503492778552e-01  2.1216533373163915e-01 
 2.1494148898186727e-01  2.1775396985531487e-01  2.2060325166794353e-01  2.2348981595516115e-01 
 2.2641415055320258e-01  2.2937674968157507e-01  2.3237811402658259e-01  2.3541875082594302e-01 
 2.3849917395451242e-01  2.4161990401113123e-01  2.4478146840660669e-01  2.4798440145284642e-01 
 2.5122924445315903e-01  2.5451654579373362e-01  2.5784686103632143e-01  2.6122075301212477e-01 
 2.6463879191691791e-01  2.6810155540741087e-01  2.7160962869887534e-01  2.7516360466404710e-01 
 2.7876408393332308e-01  2.8241167499626929e-01  2.8610699430445702e-01  2.8985066637564449e-01 
 2.9364332389932207e-01  2.9748560784363814e-01  3.0137816756372432e-01  3.0532166091143792e-01 
 3.0931675434654071e-01  3.1336412304933181e-01  3.1746445103475579e-01  3.2161843126800016e-01 
 3.2582676578161179e-01  3.3009016579413980e-01  3.3440935183033349e-01  3.3878505384291313e-01 
 3.4321801133593338e-01  3.4770897348976154e-01  3.5225869928769044e-01  3.5686795764420870e-01 
 3.6153752753494917e-01  3.6626819812833727e-01  3.7106076891896284e-01  3.7591604986269622e-01 
 3.8083486151357299e-01  3.8581803516246932e-01  3.9086641297759239e-01  3.9598084814680851e-01 
 4.0116220502183492e-01  4.0641135926431415e-01  4.1172919799380742e-01  4.1711661993771693e-01 
 4.2257453558317387e-01  4.2810386733091260e-01  4.3370554965115887e-01  4.3938052924155735e-01 
 4.4512976518716585e-01  4.5095422912254285e-01  4.5685490539595630e-01  4.6283279123574050e-01 
 4.6888889691883034e-01  4.7502424594150044e-01  4.8123987519233830e-01  4.8753683512748108e-01 
 4.9391618994814529e-01  5.0037901778047900e-01  5.0692641085776902e-01  5.1355947570502702e-01 
 5.2027933332600040e-01  5.2708711939262098e-01  5.3398398443693729e-01  5.4097109404555688e-01 
 5.4804962905663379e-01  5.5522078575943246e-01  5.6248577609650352e-01  5.6984582786850557e-01 
 5.7730218494170549e-01  5.8485610745819572e-01  5.9250887204886038e-01  6.0026177204912989e-01 
 6.0811611771755669e-01  6.1607323645725287e-01  6.2413447304022440e-01  6.3230118983464001e-01 
 6.4057476703507688e-01  6.4895660289577140e-01  6.5744811396693492e-01  6.6605073533414882e-01 
 6.7476592086089948e-01  6.8359514343428374e-01  6.9253989521393100e-01  7.0160168788418131e-01 
 7.1078205290956398e-01  7.2008254179361841e-01  7.2950472634110208e-01  7.3905019892362922e-01 
 7.4872057274878545e-01  7.5851748213276360e-01  7.6844258277656707e-01  7.7849755204582760e-01 
 7.8868408925428324e-01  7.9900391595096742e-01  8.0945877621115525e-01  8.2005043693111157e-01 
 8.3078068812670858e-01  8.4165134323593749e-01  8.5266423942538483e-01  8.6382123790071852e-01 
 8.7512422422123548e-01  8.8657510861852618e-01  8.9817582631930781e-01  9.0992833787248295e-01 
 9.2183462948047590e-01  9.3389671333490665e-01  9.4611662795665552e-01  9.5849643854037814e-01 
 9.7103823730352834e-01  9.8374414383994779e-01  9.9661630547808244e-01  1.0096568976438862e+00 
 1.0228681242284745e+00  1.0362522179605809e+00  1.0498114407839030e+00  1.0635480842393703e+00 
 1.0774644698524216e+00  1.0915629495253474e+00  1.1058459059347685e+00  1.1203157529343128e+00 
 1.1349749359625629e+00  1.1498259324563409e+00  1.1648712522694009e+00  1.1801134380966007e+00 
 1.1955550659036229e+00  1.2111987453623196e+00  1.2270471202917528e+00  1.2431028691050059e+00 
 1.2593687052618430e+00  1.2758473777272887e+00  1.2925416714362128e+00  1.3094544077639816e+00 
 1.3265884450032905e+00  1.3439466788472141e+00  1.3615320428785858e+00  1.3793475090657819e+00 
 1.3973960882649905e+00  1.4156808307290540e+00  1.4342048266229681e+00  1.4529712065461275e+00 
 1.4719831420614053e+00  1.4912438462311537e+00  1.5107565741602198e+00  1.5305246235460659e+00 
 1.5505513352360878e+00  1.5708400937922269e+00  1.5913943280629683e+00  1.6122175117628246e+00 
 1.6333131640594054e+00  1.6546848501681528e+00  1.6763361819548888e+00  1.6982708185462172e+00 
 1.7204924669479287e+00  1.7430048826714930e+00  1.7658118703687491e+00  1.7889172844749006e+00 
 1.8123250298599245e+00  1.8360390624885035e+00  1.8600633900885937e+00  1.8844020728287398e+00 
 1.9090592240042530e+00  1.9340390107323686e+00  1.9593456546564980e+00  1.9849834326596967e+00 
 2.0109566775874672e+00  2.0372697789800216e+00  2.0639271838141262e+00  2.0909333972546382e+00 
 2.1182929834159103e+00  2.1460105661331217e+00  2.1740908297437223e+00  2.2025385198790963e+00 
 2.2313584442665841e+00  2.2605554735420026e+00  2.2901345420727899e+00  2.3201006487919296e+00 
 2.3504588580427788e+00  2.3812143004349569e+00  2.4123721737114288e+00  2.4439377436269369e+00 
 2.4759163448379264e+00  2.5083133818041139e+00  2.5411343297018547e+00  2.5743847353494611e+00 
 2.6080702181446305e+00  2.6421964710141213e+00  2.6767692613758967e+00  2.7117944321138143e+00 
 2.7472779025650924e+00  2.7832256695206907e+00  2.8196438082387849e+00  2.8565384734714963e+00 
 2.8939159005050623e+00  2.9317824062136135e+00  2.9701443901267401e+00  3.0090083355110298e+00 
 3.0483808104657513e+00  3.0882684690328830e+00  3.1286780523216589e+00  3.1696163896478335e+00 
 3.2110903996878521e+00  3.2531070916481242e+00  3.2956735664496000e+00  3.3387970179278215e+00 
 3.3824847340487332e+00  3.4267440981403401e+00  3.4715825901405148e+00  3.5170077878611257e+00 
 3.5630273682687039e+00  3.6096491087818694e+00  3.6568808885857331e+00  3.7047306899634984e+00 
 3.7532065996454844e+00  3.8023168101758058e+00  3.8520696212969283e+00  3.9024734413523485e+00 
 3.9535367887076216e+00  4.0052682931899861e+00  4.0576766975468264e+00  4.1107708589232148e+00 
 4.1645597503588005e+00  4.2190524623042451e+00  4.2742582041575714e+00  4.3301863058205496e+00 
 4.3868462192754727e+00  4.4442475201825724e+00  4.5023999094983216e+00  4.5613132151149234e+00 
 4.6209973935212458e+00  4.6814625314854954e+00  4.7427188477598987e+00  4.8047766948077033e+00 
 4.8676465605527639e+00  4.9313390701520277e+00  4.9958649877912107e+00  5.0612352185039731e+00 
 5.1274608100148917e+00  5.1945529546065554e+00  5.2625229910110960e+00  5.3313824063264219e+00 
 5.4011428379576225e+00  5.4718160755836811e+00  5.5434140631499647e+00  5.6159489008867816e+00 
 5.6894328473543512e+00  5.7638783215145235e+00  5.8392979048296194e+00  5.9157043433887262e+00 
 5.9931105500618145e+00  6.0715296066820450e+00  6.1509747662566339e+00  6.2314594552066342e+00 
 6.3129972756360404e+00  6.3956020076305746e+00  6.4792876115865488e+00  6.5640682305702134e+00 
 6.6499581927079729e+00  6.7369720136078319e+00  6.8251243988126360e+00  6.9144302462852965e+00 
 7.0049046489265914e+00  7.0965628971259056e+00  7.1894204813453397e+00  7.2834930947376382e+00 
 7.3787966357983654e+00  7.4753472110527923e+00  7.5731611377779364e+00  7.6722549467602219e+00 
 7.7726453850892181e+00  7.8743494189879426e+00  7.9773842366801890e+00  8.0817672512953820e+00 
 8.1875161038114292e+00  8.2946486660361032e+00  8.4031830436274184e+00  8.5131375791534794e+00 
 8.6245308551925088e+00  8.7373816974732836e+00  8.8517091780567441e+00  8.9675326185592201e+00 
 9.0848715934178301e+00  9.2037459331985989e+00  9.3241757279478854e+00  9.4461813305876330e+00 
 9.5697833603550784e+00  9.6950027062874309e+00  9.8218605307521933e+00  9.9503782730236292e+00 
 1.0080577652906069e+01  1.0212480674404601e+01  1.0346109629443797e+01  1.0481487101635112e+01 
 1.0618635970093576e+01  1.0757579413304349e+01  1.0898340913040048e+01  1.1040944258329159e+01 
 1.1185413549476440e+01  1.1331773202135951e+01  1.1480047951437339e+01  1.1630262856166144e+01 
 1.1782443302998791e+01  1.1936615010793002e+01  1.2092804034934334e+01  1.2251036771739614e+01 
 1.2411339962917969e+01  1.2573740700090248e+01  1.2738266429367561e+01  1.2904944955989745e+01 
 1.3073804449024507e+01  1.3244873446128075e+01  1.3418180858368142e+01  1.3593755975109817e+01 
 1.3771628468965741e+01  1.3951828400810728e+01  1.4134386224862153e+01  1.4319332793826787e+01 
 1.4506699364114974e+01  1.4696517601123045e+01  1.4888819584584839e+01  1.5083637813993260e+01 
 1.5281005214092762e+01  1.5480955140443717e+01  1.5683521385059576e+01  1.5888738182117811e+01 
 1.6096640213745555e+01  1.6307262615880983e+01  1.6520640984211362e+01  1.6736811380188790e+01 
 1.6955810337124735e+01  1.7177674866364089e+01  1.7402442463540389e+01  1.7630151114912525e+01 
 1.7860839303784545e+01  1.8094546017009431e+01  1.8331310751577959e+01  1.8571173521293801e+01 
 1.8814174863535928e+01  1.9060355846109548e+01  1.9309758074186654e+01  1.9562423697337387e+01 
 1.9818395416653431e+01  2.0077716491964591e+01  2.0340430749149796e+01  2.0606582587543805e+01 
 2.0876216987440767e+01  2.1149379517696019e+01  2.1426116343427374e+01  2.1706474233816959e+01 
 2.1990500570015566e+01  2.2278243353150025e+01  2.2569751212435541e+01  2.2865073413394150e+01 
 2.3164259866180707e+01  2.3467361134017832e+01  2.3774428441741193e+01  2.4085513684456650e+01 
 2.4400669436310629e+01  2.4719948959375301e+01  2.5043406212649977e+01  2.5371095861180319e+01 
 2.5703073285296863e+01  2.6039394589974425e+01  2.6380116614313970e+01  2.6725296941148564e+01 
 2.7074993906775052e+01  2.7429266610812842e+01  2.7788174926192166e+01  2.8151779509272565e+01 
 2.8520141810093985e+01  2.8893324082762010e+01  2.9271389395968928e+01  2.9654401643652502e+01 
 3.0042425555794200e+01  3.0435526709358705e+01  3.0833771539376588e+01  3.1237227350171988e+01 
 3.1645962326737187e+01  3.2060045546256056e+01  3.2479546989778257e+01  3.2904537554046186e+01 
 3.3335089063476737e+01  3.3771274282299757e+01  3.4213166926855436e+01  3.4660841678052350e+01 
 3.5114374193989008e+01  3.5573841122740049e+01  3.6039320115310026e+01  3.6510889838756555e+01 
 3.6988629989485290e+01  3.7472621306718757e+01  3.7962945586141529e+01  3.8459685693723834e+01 
 3.8962925579726161e+01  3.9472750292886985e+01  3.9989245994796278e+01  4.0512499974456965e+01 
 4.1042600663037000e+01  4.1579637648814455e+01  4.2123701692318114e+01  4.2674884741666261e+01 
 4.3233279948106180e+01  4.3798981681756636e+01  4.4372085547557134e+01  4.4952688401425014e+01 
 4.5540888366624493e+01  4.6136784850349642e+01  4.6740478560524515e+01  4.7352071522822982e+01 
 4.7971667097911308e+01  4.8599369998916394e+01  4.9235286309122500e+01  4.9879523499899591e+01 
 5.0532190448866253e+01  5.1193397458290278e+01  5.1863256273729995e+01  5.2541880102919535e+01 
 5.3229383634901232e+01  5.3925883059408399e+01  5.4631496086501329e+01  5.5346341966461132e+01 
 5.6070541509942906e+01  5.6804217108393175e+01  5.7547492754734300e+01  5.8300494064319572e+01 
 5.9063348296162523e+01  5.9836184374444016e+01  6.0619132910300699e+01  6.1412326223898617e+01 
 6.2215898366795656e+01  6.3029985144596537e+01  6.3854724139904320e+01  6.4690254735572168e+01 
 6.5536718138259388e+01  6.6394257402295693e+01  6.7263017453857756e+01  6.8143145115462133e+01 
 6.9034789130778179e+01  6.9938100189766800e+01  7.0853230954146923e+01  7.1780336083195863e+01 
 7.2719572259886988e+01  7.3671098217369661e+01  7.4635074765795409e+01  7.5611664819495275e+01 
 7.6601033424512707e+01  7.7603347786496769e+01  7.8618777298960211e+01  7.9647493571907461e+01 
 8.0689670460837121e+01  8.1745484096123874e+01  8.2815112912785040e+01  8.3898737680636444e+01 
 8.4996541534842990e+01  8.6108710006869060e+01  8.7235431055833203e+01  8.8376895100274552e+01 
 8.9533295050333393e+01  9.0704826340353662e+01  9.1891686961911702e+01  9.3094077497277411e+01 
 9.4312201153313069e+01  9.5546263795815804e+01  9.6796473984309387e+01  9.8063043007291284e+01 
 9.9346184917940931e+01  1.0064611657029525e+02  1.0196305765589744e+02  1.0329723074092543e+02 
 1.0464886130380603e+02  1.0601817777332138e+02  1.0740541156721396e+02  1.0881079713129684e+02 
 1.1023457197907496e+02  1.1167697673188647e+02  1.1313825515956769e+02  1.1461865422165087e+02 
 1.1611842410910099e+02  1.1763781828659863e+02 
  </PP_R>
  <PP_RAB>
 1.0318106837793301e-06  1.0453117897170164e-06  1.0589895558351083e-06  1.0728462937086337e-06 
 1.0868843451592739e-06  1.1011060826511360e-06  1.1155139096917050e-06  1.1301102612380430e-06 
 1.1448976041083021e-06  1.1598784373986242e-06  1.1750552929054880e-06  1.1904307355535979e-06 
 1.2060073638293565e-06  1.2217878102200167e-06  1.2377747416585772e-06  1.2539708599745015e-06 
 1.2703789023503335e-06  1.2870016417842875e-06  1.3038418875588913e-06  1.3209024857157627e-06 
 1.3381863195365954e-06  1.3556963100304427e-06  1.3734354164273736e-06  1.3914066366785901e-06 
 1.4096130079630876e-06  1.4280576072009461e-06  1.4467435515733364e-06  1.4656739990493329e-06 
 1.4848521489196169e-06  1.5042812423371575e-06  1.5239645628649881e-06  1.5439054370311258e-06 
 1.5641072348907661e-06  1.5845733705958294e-06  1.6053073029719613e-06  1.6263125361030822e-06 
 1.6475926199235858e-06  1.6691511508182864e-06  1.6909917722302161e-06  1.7131181752763768e-06 
 1.7355340993715466e-06  1.7582433328602488e-06  1.7812497136569937e-06  1.8045571298948936e-06 
 1.8281695205827660e-06  1.8520908762708404e-06  1.8763252397251569e-06  1.9008767066108226e-06 
 1.9257494261841759e-06  1.9509476019940241e-06  1.9764754925920537e-06  2.0023374122525336e-06 
 2.0285377317014414e-06  2.0550808788551229e-06  2.0819713395686217e-06  2.1092136583938011e-06 
 2.1368124393473817e-06  2.1647723466890324e-06  2.1930981057096408e-06  2.2217945035299018e-06 
 2.2508663899093435e-06  2.2803186780659595e-06  2.3101563455065476e-06  2.3403844348679222e-06 