  <PP_INFO>

############################################################
#    Opium Parameter File                                  #
############################################################
#-----------------------------------------------------------
#Command line   : opium Ge Ge.log ae ps nl tc2 ke upf rpt 
 
#Opium version  : 4.1 
#Compile Host   : andes-login5.olcf.ornl.gov 
#Compile OS     : Linux 4.18.0-348.12.2.el8_5.x86_64 x86_64 
#Compile Date   : Thu Jun 30 15:38:05 EDT 2022 
#-----------------------------------------------------------
#Execution Host : andes-login5.olcf.ornl.gov 
#Execution Date : Thu Jun 30 16:17:34 2022
 
#-----------------------------------------------------------
############################################################
[Atom]
Ge
11            
100   2.00  -
200   2.00  -
210   6.00  -
300   2.00  -
310   6.00  -
320  10.00  -
400   2.00  -
410   0.50  -
420   0.50  -
500   0.00  -
510   0.00  -

[Pseudo]
5 -1 -1 -1 -1 -1
g

[Gaussinfo]
4 4
2 2 2 4
2 2.894473589836 43.265429324814
2 1.550339816290 -1.909339873965
2 2.986528872039 35.263014141211
2 1.283381203893 0.963439928853
2 1.043001142249 2.339019442484
2 0.554562729807 0.541380654081
1 1.478962662442 4.0
3 3.188905647765 5.9158506497680
2 1.927438978253 -12.033712959815
2 1.545539235916 1.283543489065

[KBdesign]
p

[Relativity]
nrl

[XC]
pbe

[Configs]
12

400   2.00 -
410   1.50 -
420   0.50 -
500   0.00  -
510   0.00  -

400   2.00 -
410   1.00 -
420   1.00 -
500   0.00  -
510   0.00  -

400   2.00 -
410   1.00 -
420   0.00 -
500   1.00  -
510   0.00  -

400   1.00 -
410   2.50 -
420   0.50 -
500   0.00  -
510   0.00  -

400   1.00 -
410   2.00 -
420   1.00 -
500   0.00  -
510   0.00  -

400   2.00 -
410   1.00 -
420   0.00 -
500   0.00  -
510   0.00  -

400   2.00 -
410   0.00 -
420   1.00 -
500   0.00  -
510   0.00  -

400   2.00 -
410   0.00 -
420   0.00 -
500   1.00  -
510   0.00  -

400   2.00 -
410   0.00 -
420   0.00 -
500   0.00  -
510   0.00  -

400   1.00 -
410   1.00 -
420   0.00 -
500   0.00  -
510   0.00  -

400   1.00 -
410   0.00 -
420   0.00 -
500   1.00  -
510   0.00  -

400   1.00 -
410   0.00 -
420   1.00 -
500   0.00  -
510   0.00  -

############################################################
  </PP_INFO>



<PP_HEADER>
   0         Version Number
   Ge        Element
   NC        Norm - Conserving pseudopotential
    F      Nonlinear Core Correction
SLA  PW   PBE  PBE     PBE  Exchange-Correlation functional
 4          Z valence
 0          Total energy
 0.000000   0.000000     Suggested cutoff for wfc and rho
 2           Max angular momentum component
 1165           Number of points in mesh
 3  2     Number of Wavefuncitons, Number of Projectors
 Wavefunctions         nl  l   occ
                       S  0  2.000000
                       P  1  0.500000
                       D  2  0.500000
</PP_HEADER>
<PP_MESH>
  <PP_R>
 3.1498026247371832e-05  3.1910173742914476e-05  3.2327714133768970e-05  3.2750717985255163e-05 
 3.3179256786030741e-05  3.3613402960173026e-05  3.4053229879418704e-05  3.4498811875563984e-05 
 3.4950224253026748e-05  3.5407543301573179e-05  3.5870846309210964e-05  3.6340211575251081e-05 
 3.6815718423540641e-05  3.7297447215868747e-05  3.7785479365547906e-05  3.8279897351172905e-05 
 3.8780784730560106e-05  3.9288226154868792e-05  3.9802307382907433e-05  4.0323115295627124e-05 
 4.0850737910804695e-05  4.1385264397917898e-05  4.1926785093215277e-05  4.2475391514983257e-05 
 4.3031176379012776e-05  4.3594233614268707e-05  4.4164658378763941e-05  4.4742547075641346e-05 
 4.5327997369466124e-05  4.5921108202731364e-05  4.6521979812579545e-05  4.7130713747742859e-05 
 4.7747412885705249e-05  4.8372181450088736e-05  4.9005125028267764e-05  4.9646350589213509e-05 
 5.0295966501571943e-05  5.0954082551978417e-05  5.1620809963611816e-05  5.2296261414991584e-05 
 5.2980551059020651e-05  5.3673794542277572e-05  5.4376109024560920e-05  5.5087613198689812e-05 
 5.5808427310563139e-05  5.6538673179481403e-05  5.7278474218734508e-05  5.8027955456458890e-05 
 5.8787243556767566e-05  5.9556466841156712e-05  6.0335755310192115e-05  6.1125240665479876e-05 
 6.1925056331924084e-05  6.2735337480276013e-05  6.3556221049978289e-05  6.4387845772307948e-05 
 6.5230352193822443e-05  6.6083882700112247e-05  6.6948581539864397e-05  6.7824594849240943e-05 
 6.8712070676576044e-05  6.9611159007396871e-05  7.0522011789771226e-05  7.1444782959987279e-05 
 7.2379628468569062e-05  7.3326706306632548e-05  7.4286176532586509e-05  7.5258201299182825e-05 
 7.6242944880920447e-05  7.7240573701808525e-05  7.8251256363492236e-05  7.9275163673746949e-05 
 8.0312468675345088e-05  8.1363346675300798e-05  8.2427975274497272e-05  8.3506534397701692e-05 
 8.4599206323972943e-05  8.5706175717467252e-05  8.6827629658646878e-05  8.7963757675896888e-05 
 8.9114751777556386e-05  9.0280806484368026e-05  9.1462118862352564e-05  9.2658888556113541e-05 
 9.3871317822577619e-05  9.5099611565176612e-05  9.6343977368476308e-05  9.7604625533259261e-05 
 9.8881769112065801e-05  1.0017562394520043e-04  1.0148640869720950e-04  1.0281434489383586e-04 
 1.0415965695945736e-04  1.0552257225501507e-04  1.0690332111643782e-04  1.0830213689356947e-04 
 1.0971925598960581e-04  1.1115491790104674e-04  1.1260936525817240e-04  1.1408284386604788e-04 
 1.1557560274606492e-04  1.1708789417802717e-04  1.1861997374278601e-04  1.2017210036543451e-04 
 1.2174453635906588e-04  1.2333754746910570e-04  1.2495140291822311e-04  1.2658637545183012e-04 
 1.2824274138417631e-04  1.2992078064504655e-04  1.3162077682706984e-04  1.3334301723364706e-04 
 1.3508779292750606e-04  1.3685539877989183e-04  1.3864613352040063e-04  1.4046029978746543e-04 
 1.4229820417950345e-04  1.4416015730673126e-04  1.4604647384365904e-04  1.4795747258227116e-04 
 1.4989347648590277e-04  1.5185481274382158e-04  1.5384181282652315e-04  1.5585481254175076e-04 
 1.5789415209124748e-04  1.5996017612825096e-04  1.6205323381574083e-04  1.6417367888544793e-04 
 1.6632186969763588e-04  1.6849816930166492e-04  1.7070294549734785e-04  1.7293657089710934e-04 
 1.7519942298895841e-04  1.7749188420028401e-04  1.7981434196248731e-04  1.8216718877645780e-04 
 1.8455082227890706e-04  1.8696564530957025e-04  1.8941206597928708e-04  1.9189049773897361e-04 
 1.9440135944949583e-04  1.9694507545245905e-04  1.9952207564192205e-04  2.0213279553705040e-04 
 2.0477767635572011e-04  2.0745716508908460e-04  2.1017171457711730e-04  2.1292178358514252e-04 
 2.1570783688136806e-04  2.1853034531543210e-04  2.2138978589797799e-04  2.2428664188126957e-04 
 2.2722140284086299e-04  2.3019456475834542e-04  2.3320663010515733e-04  2.3625810792751159e-04 
 2.3934951393242253e-04  2.4248137057486304e-04  2.4565420714605984e-04  2.4886855986294508e-04 
 2.5212497195877844e-04  2.5542399377495459e-04  2.5876618285401259e-04  2.6215210403386142e-04 
 2.6558232954323937e-04  2.6905743909842175e-04  2.7257802000119454e-04  2.7614466723810952e-04 
 2.7975798358103883e-04  2.8341857968904461e-04  2.8712707421158119e-04  2.9088409389304979e-04 
 2.9469027367871859e-04  2.9854625682203072e-04  3.0245269499331451e-04  3.0641024838991878e-04 
 3.1041958584778704e-04  3.1448138495449219e-04  3.1859633216375075e-04  3.2276512291143513e-04 
 3.2698846173310369e-04  3.3126706238306936e-04  3.3560164795502545e-04  3.3999295100425029e-04 
 3.4444171367141094e-04  3.4894868780798669e-04  3.5351463510333362e-04  3.5814032721341235e-04 
 3.6282654589119847e-04  3.6757408311880249e-04  3.7238374124131545e-04  3.7725633310240782e-04 
 3.8219268218170078e-04  3.8719362273393802e-04  3.9225999992997552e-04  3.9739266999961795e-04 
 4.0259250037632334e-04  4.0786036984380143e-04  4.1319716868453023e-04  4.1860379883021593e-04 
 4.2408117401422152e-04  4.2963021992598971e-04  4.3525187436748689e-04  4.4094708741169373e-04 
 4.4671682156316987e-04  4.5256205192071983e-04  4.5848376634218549e-04  4.6448296561139868e-04 
 4.7056066360731457e-04  4.7671788747536044e-04  4.8295567780102388e-04  4.8927508878571701e-04 
 4.9567718842493693e-04  5.0216305868876026e-04  5.0873379570469867e-04  5.1539050994294693e-04 
 5.2213432640405466e-04  5.2896638480905503e-04  5.3588783979207917e-04  5.4289986109549320e-04 
 5.5000363376758645e-04  5.5720035836284829e-04  5.6449125114486421e-04  5.7187754429186802e-04 
 5.7936048610498039e-04  5.8694134121917857e-04  5.9462139081701995e-04  6.0240193284516615e-04 
 6.1028428223373768e-04  6.1826977111854246e-04  6.2635974906620809e-04  6.3455558330226269e-04 
 6.4285865894219937e-04  6.5127037922556275e-04  6.5979216575310176e-04  6.6842545872702224e-04 
 6.7717171719438522e-04  6.8603241929368782e-04  6.9500906250467463e-04  7.0410316390141358e-04 
 7.1331626040868547e-04  7.2264990906172847e-04  7.3210568726937925e-04  7.4168519308066090e-04 
 7.5139004545485570e-04  7.6122188453511374e-04  7.7118237192563962e-04  7.8127319097250959e-04 
 7.9149604704815957e-04  8.0185266783959800e-04  8.1234480364038850e-04  8.2297422764645309e-04 
 8.3374273625574826e-04  8.4465214937185895e-04  8.5570431071156779e-04  8.6690108811644546e-04 
 8.7824437386852330e-04  8.8973608501009143e-04  9.0137816366768432e-04  9.1317257738030466e-04 
 9.2512131943194085e-04  9.3722640918843941e-04  9.4948989243878029e-04  9.6191384174082147e-04 
 9.7450035677156444e-04  9.8725156468200707e-04  1.0001696204566350e-03  1.0132567072776207e-03 
 1.0265150368937857e-03  1.0399468499943903e-03  1.0535544165878182e-03  1.0673400363852108e-03 
 1.0813060391891254e-03  1.0954547852872758e-03  1.1097886658514278e-03  1.1243101033415132e-03 
 1.1390215519150302e-03  1.1539254978418028e-03  1.1690244599241644e-03  1.1843209899226445e-03 
 1.1998176729872199e-03  1.2155171280942131e-03  1.2314220084889019e-03  1.2475350021339288e-03 
 1.2638588321635703e-03  1.2803962573439539e-03  1.2971500725392961e-03  1.3141231091842395e-03 
 1.3313182357623751e-03  1.3487383582910207e-03  1.3663864208123459e-03  1.3842654058909198e-03 
 1.4023783351177748e-03  1.4207282696210607e-03  1.4393183105833832e-03  1.4581515997659120e-03 
 1.4772313200393423e-03  1.4965606959218127e-03  1.5161429941238532e-03  1.5359815241004682e-03 
 1.5560796386104403e-03  1.5764407342829575e-03  1.5970682521916500e-03  1.6179656784361398e-03 
 1.6391365447312009e-03  1.6605844290036244e-03  1.6823129559969010e-03  1.7043257978838087e-03 
 1.7266266748870191e-03  1.7492193559078240e-03  1.7721076591630900e-03  1.7952954528305408e-03 
 1.8187866557024968e-03  1.8425852378481547e-03  1.8666952212845400e-03  1.8911206806562376e-03 
 1.9158657439240162e-03  1.9409345930624640e-03  1.9663314647667511e-03  1.9920606511686450e-03 
 2.0181265005618817e-03  2.0445334181370496e-03  2.0712858667260698e-03  2.0983883675564276e-03 
 2.1258455010152695e-03  2.1536619074235012e-03  2.1818422878200111e-03  2.2103914047561582e-03 
 2.2393140831006566e-03  2.2686152108549813e-03  2.2982997399794637e-03  2.3283726872301790e-03 
 2.3588391350067880e-03  2.3897042322114782e-03  2.4209731951191399e-03  2.4526513082589272e-03 
 2.4847439253073574e-03  2.5172564699930977e-03  2.5501944370135785e-03  2.5835633929636240e-03 
 2.6173689772762115e-03  2.6516169031755494e-03  2.6863129586426294e-03  2.7214630073934044e-03 
 2.7570729898697740e-03  2.7931489242435325e-03  2.8296969074334548e-03  2.8667231161356834e-03 
 2.9042338078676174e-03  2.9422353220254385e-03  2.9807340809554863e-03  3.0197365910396511e-03 
 3.0592494437949669e-03  3.0992793169875936e-03  3.1398329757613762e-03  3.1809172737811710e-03 
 3.2225391543911231e-03  3.2647056517881223e-03  3.3074238922105887e-03  3.3507010951428278e-03 
 3.3945445745351384e-03  3.4389617400398904e-03  3.4839600982637703e-03  3.5295472540364191e-03 
 3.5757309116956669e-03  3.6225188763895741e-03  3.6699190553955360e-03  3.7179394594566225e-03 
 3.7665882041354125e-03  3.8158735111855457e-03  3.8658037099412175e-03  3.9163872387248562e-03 
 3.9676326462732194e-03  4.0195485931821566e-03  4.0721438533702524e-03  4.1254273155616637e-03 
 4.1794079847883216e-03  4.2340949839118035e-03  4.2894975551651220e-03  4.3456250617146834e-03 
 4.4024869892426814e-03  4.4600929475502073e-03  4.5184526721813254e-03  4.5775760260683930e-03 
 4.6374730011989398e-03  4.6981537203043232e-03  4.7596284385704995e-03  4.8219075453711695e-03 
 4.8850015660236133e-03  4.9489211635674922e-03  5.0136771405669247e-03  5.0792804409361542e-03 
 5.1457421517890761e-03  5.2130735053130140e-03  5.2812858806669701e-03  5.3503908059047301e-03 
 5.4203999599231351e-03  5.4913251744358434e-03  5.5631784359729168e-03  5.6359718879065730e-03 
 5.7097178325034477e-03  5.7844287330036919e-03  5.8601172157273134e-03  5.9367960722080393e-03 
 6.0144782613551166e-03  6.0931769116434036e-03  6.1729053233321078e-03  6.2536769707125682e-03 
 6.3355055043854344e-03  6.4184047535676639e-03  6.5023887284296642e-03  6.5874716224630847e-03 
 6.6736678148795201e-03  6.7609918730406450e-03  6.8494585549201291e-03  6.9390828115977682e-03 
 7.0298797897862557e-03  7.1218648343910115e-03  7.2150534911035128e-03  7.3094615090285291e-03 
 7.4051048433457977e-03  7.5019996580064571e-03  7.6001623284648046e-03  7.6996094444457836e-03 
 7.8003578127486903e-03  7.9024244600875565e-03  8.0058266359687141e-03  8.1105818156059981e-03 
 8.2167077028740820e-03  8.3242222333005100e-03  8.4331435770968206e-03  8.5434901422293576e-03 
 8.6552805775302662e-03  8.7685337758491803e-03  8.8832688772461730e-03  8.9995052722264598e-03 
 9.1172626050174520e-03  9.2365607768886537e-03  9.3574199495150556e-03  9.4798605483844920e-03 
 9.6039032662495905e-03  9.7295690666249022e-03  9.8568791873297913e-03  9.9858551440776631e-03 
 1.0116518734112187e-02  1.0248892039891077e-02  1.0382997432818055e-02  1.0518857577023717e-02 
 1.0656495433195795e-02  1.0795934262459573e-02  1.0937197630309075e-02  1.1080309410589687e-02 
 1.1225293789532896e-02  1.1372175269843823e-02  1.1520978674842241e-02  1.1671729152657739e-02 
 1.1824452180479882e-02  1.1979173568863867e-02  1.2135919466092581e-02  1.2294716362595727e-02 
 1.2455591095426767e-02  1.2618570852798444e-02  1.2783683178677665e-02  1.2950955977440497e-02 
 1.3120417518588031e-02  1.3292096441524071e-02  1.3466021760395203e-02  1.3642222868994277e-02 
 1.3820729545728020e-02  1.4001571958649666e-02  1.4184780670557418e-02  1.4370386644159646e-02 
 1.4558421247307659e-02  1.4748916258296906e-02  1.4941903871237653e-02  1.5137416701495814e-02 
 1.5335487791205046e-02  1.5536150614850934e-02  1.5739439084928274e-02  1.5945387557672355e-02 
 1.6154030838865248e-02  1.6365404189718078e-02  1.6579543332830203e-02  1.6796484458226495e-02 
 1.7016264229473482e-02  1.7238919789875608e-02  1.7464488768752517e-02  1.7693009287798517e-02 
 1.7924519967525230e-02  1.8159059933788548e-02  1.8396668824401011e-02  1.8637386795830633e-02 
 1.8881254529987533e-02  1.9128313241099214e-02  1.9378604682675875e-02  1.9632171154566863e-02 
 1.9889055510109440e-02  2.0149301163371103e-02  2.0412952096486661e-02  2.0680052867091341e-02 
 2.0950648615851070e-02  2.1224785074091451e-02  2.1502508571526392e-02  2.1783866044087972e-02 
 2.2068905041858711e-02  2.2357673737107654e-02  2.2650220932431592e-02  2.2946596069002831e-02 
 2.3246849234924871e-02  2.3551031173697341e-02  2.3859193292791899e-02  2.4171387672340127e-02 
 2.4487667073935220e-02  2.4808084949548826e-02  2.5132695450564548e-02  2.5461553436929664e-02 
 2.5794714486426576e-02  2.6132234904065639e-02  2.6474171731600708e-02  2.6820582757169510e-02 
 2.7171526525059855e-02  2.7527062345603797e-02  2.7887250305201217e-02  2.8252151276474569e-02 
 2.8621826928556499e-02  2.8996339737512072e-02  2.9375752996897406e-02  2.9760130828456320e-02 
 3.0149538192957237e-02  3.0544040901171580e-02  3.0943705624995991e-02  3.1348599908720041e-02 
 3.1758792180441364e-02  3.2174351763630184e-02  3.2595348888845119e-02  3.3021854705602392e-02 
 3.3453941294400082e-02  3.3891681678900144e-02  3.4335149838269428e-02  3.4784420719682352e-02 
 3.5239570250987187e-02  3.5700675353538026e-02  3.6167813955194680e-02  3.6641065003492651e-02 
 3.7120508478985528e-02  3.7606225408761719e-02  3.8098297880138451e-02  3.8596809054534553e-02 
 3.9101843181525014e-02  3.9613485613079327e-02  4.0131822817986176e-02  4.0656942396466882e-02 
 4.1188933094980049e-02  4.1727884821219946e-02  4.2273888659311004e-02  4.2827036885201425e-02 
 4.3387422982257930e-02  4.3955141657064711e-02  4.4530288855429020e-02  4.5112961778596292e-02 
 4.5703258899677357e-02  4.6301279980290648e-02  4.6907126087422174e-02  4.7520899610505936e-02 
 4.8142704278728209e-02  4.8772645178557880e-02  4.9410828771506335e-02  5.0057362912119735e-02 
 5.0712356866206648e-02  5.1375921329304262e-02  5.2048168445386192e-02  5.2729211825815123e-02 
 5.3419166568543189e-02  5.4118149277564122e-02  5.4826278082619390e-02  5.5543672659162477e-02 
 5.6270454248584269e-02  5.7006745678703195e-02  5.7752671384523398e-02  5.8508357429264524e-02 
 5.9273931525666804e-02  6.0049523057574557e-02  6.0835263101802713e-02  6.1631284450288891e-02 
 6.2437721632535581e-02  6.3254710938345990e-02  6.4082390440857312e-02  6.4920900019875424e-02 
 6.5770381385514928e-02  6.6630978102148491e-02  6.7502835612669454e-02  6.8386101263072221e-02 
 6.9280924327353999e-02  7.0187456032742387e-02  7.1105849585253261e-02  7.2036260195582832e-02 
 7.2978845105338724e-02  7.3933763613614131e-02  7.4901177103909825e-02  7.5881249071408044e-02 
 7.6874145150604048e-02  7.7880033143298416e-02  7.8899083046956003e-02  7.9931467083435986e-02 
 8.0977359728097692e-02  8.2036937739287399e-02  8.3110380188210889e-02  8.4197868489196998e-02 
 8.5299586430356789e-02  8.6415720204644580e-02  8.7546458441324720e-02  8.8691992237850487e-02 
 8.9852515192159976e-02  9.1028223435394615e-02  9.2219315665045820e-02  9.3425993178535310e-02 
 9.4648459907234875e-02  9.5886922450931236e-02  9.7141590112741968e-02  9.8412674934488145e-02 
 9.9700391732530105e-02  1.0100495813407126e-01  1.0232659461393866e-01  1.0366552453184300e-01 
 1.0502197417012719e-01  1.0639617277200859e-01  1.0778835258032166e-01  1.0919874887676750e-01 
 1.1062760002167710e-01  1.1207514749429476e-01  1.1354163593358864e-01  1.1502731317959537e-01 
 1.1653243031530559e-01  1.1805724170909757e-01  1.1960200505772602e-01  1.2116698142987357e-01 
 1.2275243531027193e-01  1.2435863464440038e-01  1.2598585088376954e-01  1.2763435903179635e-01 
 1.2930443769028163e-01  1.3099636910649368e-01  1.3271043922086873e-01  1.3444693771533581e-01 
 1.3620615806227349e-01  1.3798839757410750e-01  1.3979395745355730e-01  1.4162314284453989e-01 
 1.4347626288373999e-01  1.4535363075285482e-01  1.4725556373152260e-01  1.4918238325094346e-01 
 1.5113441494820226e-01  1.5311198872130183e-01  1.5511543878491665e-01  1.5714510372687587e-01 
 1.5920132656538574e-01  1.6128445480699946e-01  1.6339484050534819e-01  1.6553284032063781e-01 
 1.6769881557992580e-01  1.6989313233818623e-01  1.7211616144017389e-01  1.7436827858309803e-01 
 1.7664986438011612e-01  1.7896130442465819e-01  1.8130298935559325e-01  1.8367531492324807e-01 
 1.8607868205628991e-01  1.8851349692948455e-01  1.9098017103234063e-01  1.9347912123865246e-01 
 1.9601076987695265e-01  1.9857554480188663e-01  2.0117387946652149e-01  2.0380621299559915e-01 
 2.0647299025975155e-01  2.0917466195068354e-01  2.1191168465734114e-01  2.1468452094307613e-01 
 2.1749363942382041e-01  2.2033951484728326e-01  2.2322262817318464e-01  2.2614346665453874e-01 
 2.2910252392000077e-01  2.3210030005729146e-01  2.3513730169771299e-01  2.3821404210177100e-01 
 2.4133104124591662e-01  2.4448882591042406e-01  2.4768792976841741e-01  2.5092889347606284e-01 
 2.5421226476394121e-01  2.5753859852961408e-01  2.6090845693140519e-01  2.6432240948340507e-01 
 2.6778103315172058e-01  2.7128491245198344e-01  2.7483463954813508e-01  2.7843081435250339e-01 
 2.8207404462718949e-01  2.8576494608678110e-01  2.8950414250240963e-01  2.9329226580716894e-01 
 2.9712995620291360e-01  3.0101786226845462e-01  3.0495664106917059e-01  3.0894695826805357e-01 
 3.1298948823820755e-01  3.1708491417681900e-01  3.2123392822061969e-01  3.2543723156285692e-01 
 3.2969553457180034e-01  3.3400955691079370e-01  3.3838002765988007e-01  3.4280768543901807e-01 
 3.4729327853291081e-01  3.5183756501746716e-01  3.5644131288791892e-01  3.6110530018861353e-01 
 3.6583031514450554e-01  3.7061715629436859e-01  3.7546663262574997e-01  3.8037956371169207e-01 
 3.8535677984924160e-01  3.9039912219977208e-01  3.9550744293114198e-01  4.0068260536171324e-01 
 4.0592548410625467e-01  4.1123696522375131e-01  4.1661794636715449e-01  4.2206933693508475e-01 
 4.2759205822552293e-01  4.3318704359151161e-01  4.3885523859889441e-01  4.4459760118611830e-01 
 4.5041510182612793e-01  4.5630872369037767e-01  4.6227946281499005e-01  4.6832832826908799e-01 
 4.7445634232533013e-01  4.8066454063267722e-01  4.8695397239141935e-01  4.9332570053049318e-01 
 4.9978080188711960e-01  5.0632036738879149e-01  5.1294550223764457e-01  5.1965732609723481e-01 
 5.2645697328177021e-01  5.3334559294780870e-01  5.4032434928846951e-01  5.4739442173018427e-01 
 5.5455700513202311e-01  5.6181330998762857e-01  5.6916456262979198e-01  5.7661200543770652e-01 
 5.8415689704693241e-01  5.9180051256210908e-01  5.9954414377245135e-01  6.0738909937006413e-01 
 6.1533670517111538e-01  6.2338830433990133e-01  6.3154525761584523e-01  6.3980894354346496e-01 
 6.4818075870535197e-01  6.5666211795819185e-01  6.6525445467188604e-01  6.7395922097178984e-01 
 6.8277788798412598e-01  6.9171194608460884e-01  7.0076290515032125e-01  7.0993229481488773e-01 
 7.1922166472698534e-01  7.2863258481223903e-01  7.3816664553854205e-01  7.4782545818484902e-01 
 7.5761065511348624e-01  7.6752389004602417e-01  7.7756683834276108e-01  7.8774119728586223e-01 
 7.9804868636620496e-01  8.0849104757397661e-01  8.1907004569307662e-01  8.2978746859936325e-01 
 8.4064512756281762e-01  8.5164485755364683e-01  8.6278851755239983e-01  8.7407799086413929e-01 
 8.8551518543672492e-01  8.9710203418326118e-01  9.0884049530876398e-01  9.2073255264110232e-01 
 9.3278021596626959e-01  9.4498552136804226e-01  9.5735053157208316e-01  9.6987733629454653e-01 
 9.8256805259524560e-01  9.9542482523544029e-01  1.0084498270403071e+00  1.0216452592661520e+00 
 1.0350133519724292e+00  1.0485563643986198e+00  1.0622765853460592e+00  1.0761763335647434e+00 
 1.0902579581452037e+00  1.1045238389155099e+00  1.1189763868434663e+00  1.1336180444440715e+00 
 1.1484512861923084e+00  1.1634786189413369e+00  1.1787025823461581e+00  1.1941257492928219e+00 
 1.2097507263332512e+00  1.2255801541257543e+00  1.2416167078813043e+00  1.2578630978156538e+00 
 1.2743220696073703e+00  1.2909964048618601e+00  1.3078889215814702e+00  1.3250024746417275e+00 
 1.3423399562738332e+00  1.3599042965534482e+00  1.3776984638958845e+00  1.3957254655577749e+00 
 1.4139883481453059e+00  1.4324901981291029e+00  1.4512341423658488e+00  1.4702233486267322e+00 
 1.4894610261328072e+00  1.5089504260973601e+00  1.5286948422753714e+00  1.5486976115201689e+00 
 1.5689621143473633e+00  1.5894917755061642e+00  1.6102900645581697e+00  1.6313604964637318e+00 
 1.6527066321759949e+00  1.6743320792426946e+00  1.6962404924158585e+00  1.7184355742694573e+00 
 1.7409210758251503e+00  1.7637007971862186e+00  1.7867785881797897e+00  1.8101583490074691e+00 
 1.8338440309044828e+00  1.8578396368074457e+00  1.8821492220308669e+00  1.9067768949525086e+00 
 1.9317268177077107e+00  1.9570032068928020e+00  1.9826103342777155e+00  2.0085525275279261e+00 
 2.0348341709358380e+00  2.0614597061617408e+00  2.0884336329844615e+00  2.1157605100618273e+00 
 2.1434449557011086e+00  2.1714916486395093e+00  2.1999053288348902e+00  2.2286907982668320e+00 
 2.2578529217481806e+00  2.2873966277472126e+00  2.3173269092205597e+00  2.3476488244570271e+00 
 2.3783674979324587e+00  2.4094881211757859e+00  2.4410159536464064e+00  2.4729563236230478e+00 
 2.5053146291042561e+00  2.5380963387206745e+00  2.5713069926592516e+00  2.6049522035995474e+00 
 2.6390376576622945e+00  2.6735691153703471e+00  2.7085524126222498e+00  2.7439934616785031e+00 
 2.7798982521607494e+00  2.8162728520640377e+00  2.8531234087823267e+00  2.8904561501474100e+00 
 2.9282773854814330e+00  2.9665935066631861e+00  3.0054109892083449e+00  3.0447363933638485e+00 
 3.0845763652165981e+00  3.1249376378166591e+00  3.1658270323151649e+00  3.2072514591171069e+00 
 3.2492179190492081e+00  3.2917335045430818e+00  3.3348054008338734e+00  3.3784408871745595e+00 
 3.4226473380661946e+00  3.4674322245041940e+00  3.5128031152409593e+00  3.5587676780650113e+00 
 3.6053336810968677e+00  3.6525089941018720e+00  3.7003015898202047e+00  3.7487195453142927e+00 
 3.7977710433338538e+00  3.8474643736988012e+00  3.8978079347002406e+00  3.9488102345198048e+00 
 4.0004798926675527e+00  4.0528256414386910e+00  4.1058563273893496e+00  4.1595809128316716e+00 
 4.2140084773484752e+00  4.2691482193276906e+00  4.3250094575169582e+00  4.3816016325984881e+00 
 4.4389343087845621e+00  4.4970171754339132e+00  4.5558600486892491e+00  4.6154728731362011e+00 
 4.6758657234839855e+00  4.7370488062680511e+00  4.7990324615750106e+00  4.8618271647901370e+00 
 4.9254435283677331e+00  4.9898923036246545e+00  5.0551843825573153e+00  5.1213307996824557e+00 
 5.1883427339020054e+00  5.2562315103923423e+00  5.3250086025182846e+00  5.3946856337720783e+00 
 5.4652743797378536e+00  5.5367867700816857e+00  5.6092348905677509e+00  5.6826309851008423e+00 
 5.7569874577956286e+00  5.8323168750729684e+00  5.9086319677836743e+00  5.9859456333600516e+00 
 6.0642709379955955e+00  6.1436211188532130e+00  6.2240095863023290e+00  6.3054499261852746e+00 
 6.3879559021133270e+00  6.4715414577927897e+00  6.5562207193815132e+00  6.6420079978762523e+00 
 6.7289177915312663e+00  6.8169647883085123e+00  6.9061638683600179e+00  6.9965301065426146e+00 
 7.0880787749656351e+00  7.1808253455719386e+00  7.2747854927527023e+00  7.3699750959964341e+00 
 7.4664102425726435e+00  7.5641072302506265e+00  7.6630825700538283e+00  7.7633529890502482e+00 
 7.8649354331793475e+00  7.9678470701159618e+00  8.0721052921716723e+00  8.1777277192341504e+00 
 8.2847322017449638e+00  8.3931368237163362e+00  8.5029599057874083e+00  8.6142200083204106e+00 
 8.7269359345374973e+00  8.8411267336984718e+00  8.9568117043201774e+00  9.0740103974379931e+00 
 9.1927426199099962e+00  9.3130284377643822e+00  9.4348881795906596e+00  9.5583424399752328e+00 
 9.6834120829819437e+00  9.8101182456781348e+00  9.9384823417068748e+00  1.0068526064905914e+01 
 1.0200271392973988e+01  1.0333740591185109e+01  1.0468956216151440e+01  1.0605941119635430e+01 
 1.0744718452411822e+01  1.0885311668180124e+01  1.1027744527528444e+01  1.1172041101949013e+01 
 1.1318225777906351e+01  1.1466323260958628e+01  1.1616358579932964e+01  1.1768357091155368e+01 
 1.1922344482736003e+01  1.2078346778910555e+01  1.2236390344438377e+01  1.2396501889058202e+01 
 1.2558708472002150e+01  1.2723037506568810e+01  1.2889516764756138e+01  1.3058174381955007e+01 
 1.3229038861704145e+01  1.3402139080507302e+01  1.3577504292713478e+01  1.3755164135460872e+01 
 1.3935148633685781e+01  1.4117488205196784e+01  1.4302213665815453e+01  1.4489356234584296e+01 
 1.4678947539042854e+01  1.4871019620572826e+01  1.5065604939813138e+01  1.5262736382145878e+01 
 1.5462447263253988e+01  1.5664771334751709e+01  1.5869742789888674e+01  1.6077396269328652e+01 
 1.6287766867003910e+01  1.6500890136046149e+01  1.6716802094795092e+01  1.6935539232885663e+01 
 1.7157138517414847e+01  1.7381637399189092e+01  1.7609073819053776e+01  1.7839486214305182e+01 
 1.8072913525186507e+01  1.8309395201468870e+01  1.8548971209118417e+01  1.8791682037050649e+01 
 1.9037568703973161e+01  1.9286672765317903e+01  1.9539036320264128e+01  1.9794702018853275e+01 
 2.0053713069196917e+01  2.0316113244779029e+01  2.0581946891853821e+01  2.0851258936940361e+01 
 2.1124094894415261e+01  2.1400500874204742e+01  2.1680523589577188e+01  2.1964210365038017e+01 
 2.2251609144327482e+01  2.2542768498523323e+01  2.2837737634249383e+01  2.3136566401991654e+01 
 2.3439305304523131e+01  2.3746005505438884e+01  2.4056718837802848e+01  2.4371497812907720e+01 
 2.4690395629149492e+01  2.5013466181018124e+01  2.5340764068205814e+01  2.5672344604834503e+01 
 2.6008263828804072e+01  2.6348578511262893e+01  2.6693346166202282e+01  2.7042625060176555e+01 
 2.7396474222150015e+01  2.7754953453473274e+01  2.8118123337989648e+01  2.8486045252273993e+01 
 2.8858781376005517e+01  2.9236394702476279e+01  2.9618949049237205e+01  3.0006509068883414e+01 
 3.0399140259980662e+01  3.0796908978134741e+01  3.1199882447205745e+01  3.1608128770669069e+01 
 3.2021716943125035e+01  3.2440716861959181e+01  3.2865199339155033e+01  3.3295236113261566e+01 
 3.3730899861517116e+01  3.4172264212132127e+01  3.4619403756732225e+01  3.5072394062964747e+01 
 3.5531311687269593e+01  3.5996234187817549e+01  3.6467240137617765e+01  3.6944409137796796e+01 
 3.7427821831051389e+01  3.7917559915277259e+01  3.8413706157376275e+01  3.8916344407244225e+01 
 3.9425559611941665e+01  3.9941437830050162e+01  4.0464066246216433e+01  4.0993533185886697e+01 
 4.1529928130233962e+01  4.2073341731280472e+01  4.2623865827218197e+01  4.3181593457929722e+01 
 4.3746618880711928e+01  4.4319037586206164e+01  4.4898946314536069e+01  4.5486443071656957e+01 
 4.6081627145919093e+01  4.6684599124847622e+01  4.7295460912142111e+01  4.7914315744898524e+01 
 4.8541268211056533e+01  4.9176424267075120e+01  4.9819891255839494e+01  5.0471777924802268e+01 
 5.1132194444362042e+01  5.1801252426482485e+01  5.2479064943554995e+01  5.3165746547508220e+01 
 5.3861413289167594e+01  5.4566182737868303e+01  5.5280174001324411e+01  5.6003507745758910e+01 
 5.6736306216296200e+01  5.7478693257621948e+01  5.8230794334913085e+01  5.8992736555041738e+01 
 5.9764648688056617e+01  6.0546661188945428e+01  6.1338906219682080e+01  6.2141517671562383e+01 