  <PP_INFO>

############################################################
#    Opium Parameter File                                  #
############################################################
#-----------------------------------------------------------
#Command line   : opium Ta Ta.log ae ps nl tc2 ke upf qmcpack rpt 
 
#Opium version  : 4.1 
#Compile Host   : py-garuda.cos.ncsu.edu 
#Compile OS     : Linux 5.15.0-113-generic x86_64 
#Compile Date   : Sat Jul 13 02:11:52 EDT 2024 
#-----------------------------------------------------------
#Execution Host : py-garuda.cos.ncsu.edu 
#Execution Date : Mon Jan 20 22:28:33 2025
 
#-----------------------------------------------------------
############################################################
[Atom]
Ta
15            
100   2.00 -
200   2.00 -
210   6.00 -
300   2.00 -
310   6.00 -
320  10.00 -
400   2.00 -
410   6.00 -
420  10.00 -
430  14.00 -
500   2.00 -
510   6.00 -
520   4.00 -
600   1.00 -
610   0.00 -

[Pseudo]
5 1.176092 1.288137 1.877981 3.242022 3.2
g

[Gaussinfo]
13 5 3
4 4 4 2 4  6 6 2
2  16.08487737880344   354.56078018080508
4  4.85668884301541   -3.18906211229170
2  6.30802922975839   15.43406034238401
2  4.04911757928159   17.92189033024011
2  9.21923589281251   291.70871884263369
4  8.30422516651248   -10.54318109647359
2  3.16045125855980   -0.60632678182044
2  2.27620720575355   3.70756033781846
2  5.66393146919502   119.43407155054338
4  6.80490694652875   -1.42875323933968
2  5.86746551190718   6.08463244531056
2  5.45850446761400   14.58929295482653
2  1.88569677412283   13.74156012098197
2  3.23123426818858   12.96703882608918
1  6.58579803212618   13.0
3  9.13192842576420   85.615374417640340
2  7.99186085237527   -0.26293749961227
2  1.84263860654940   -2.27391351331509
2  9.56775704949641e+00  -1.93788021566307e+02   
2  7.67245314346327e+00  1.95894081277139e+02 
4  9.28459014346259e+00  -9.65332951346128e+00  
4  8.09973865015157e+00  6.25321612928146e+00
2  3.63700626593621e+00  -1.44228943099978e-01 
2  1.69094259127323e+00  -1.60196008703870e+00 
2  5.49858241665781e+00  -4.59692675665773e+01
2  5.59504723145173e+00  4.64012578026804e+01 
4  5.86863374879611e+00  -4.74343389690372e-01  
4  5.65411544412552e+00  2.93785234043371e-01
2  1.41459437326532e+00  4.84403825308043e-01 
2  1.56515216227196e+00  -2.70080742921569e-01 
2  2.13266008195571e+00  -3.83110753677589e+00
2  2.03292298158203e+00  3.92454891037515e+00



[KBdesign]
s

[Relativity]
frl

[XC]
pbe

[Configs]
8
500   2.00 -
510   6.00 -
520   5.00 -
600   0.00 -
610   0.00 -

500   2.00 -
510   6.00 -
520   4.00 -
600   0.00 -
610   1.00 -

500   2.00 -
510   6.00 -
520   3.00 -
600   0.00 -
610   0.00 -

500   2.00 -
510   6.00 -
520   2.00 -
600   0.00 -
610   0.00 -

500   2.00 -
510   6.00 -
520   1.00 -
600   0.00 -
610   0.00 -

500   2.00 -
510   6.00 -
520   0.00 -
600   0.00 -
610   0.00 -

500   2.00 -
510   5.00 -
520   0.00 -
600   0.00 -
610   0.00 -

500   2.00 -
510   4.00 -
520   0.00 -
600   0.00 -
610   0.00 -
############################################################
############################################################
  </PP_INFO>



<PP_HEADER>
   0         Version Number
   Ta        Element
   NC        Norm - Conserving pseudopotential
    F      Nonlinear Core Correction
SLA  PW   PBE  PBE     PBE  Exchange-Correlation functional
 13          Z valence
 0          Total energy
 0.000000   0.000000     Suggested cutoff for wfc and rho
 2           Max angular momentum component
 1186           Number of points in mesh
 5  4     Number of Wavefuncitons, Number of Projectors
 Wavefunctions         nl  l   occ
                      5S  0  2.000000
                      5P  1  2.000000
                      5P  1  4.000000
                      5D  2  1.600000
                      5D  2  2.400000
</PP_HEADER>
<PP_MESH>
  <PP_R>
 2.3927227559463717e-05  2.4240312158367268e-05  2.4557493427719872e-05  2.4878824971910966e-05 
 2.5204361096736328e-05  2.5534156818575876e-05  2.5868267873691508e-05  2.6206750727646772e-05 
 2.6549662584849610e-05  2.6897061398220048e-05  2.7249005878984402e-05  2.7605555506597570e-05 
 2.7966770538795245e-05  2.8332712021777597e-05  2.8703441800526250e-05  2.9079022529256134e-05 
 2.9459517682004347e-05  2.9844991563357326e-05  3.0235509319318475e-05  3.0631136948318027e-05 
 3.1031941312366915e-05  3.1437990148356613e-05  3.1849352079506852e-05  3.2266096626963083e-05 
 3.2688294221545676e-05  3.3116016215653013e-05  3.3549334895320121e-05  3.3988323492435198e-05 
 3.4433056197115992e-05  3.4883608170248108e-05  3.5340055556187353e-05  3.5802475495628352e-05 
 3.6270946138641497e-05  3.6745546657880395e-05  3.7226357261962431e-05  3.7713459209024081e-05 
 3.8206934820453732e-05  3.8706867494804234e-05  3.9213341721887453e-05  3.9726443097053215e-05 
 4.0246258335655162e-05  4.0772875287705856e-05  4.1306382952723522e-05  4.1846871494773386e-05 
 4.2394432257705474e-05  4.2949157780591962e-05  4.3511141813366515e-05  4.4080479332668262e-05 
 4.4657266557893030e-05  4.5241600967454731e-05  4.5833581315259289e-05  4.6433307647394479e-05 
 4.7040881319037846e-05  4.7656405011585968e-05  4.8279982750007914e-05  4.8911719920425635e-05 
 4.9551723287924535e-05  5.0200101014596990e-05  5.0856962677822009e-05  5.1522419288784111e-05 
 5.2196583311234323e-05  5.2879568680497047e-05  5.3571490822725263e-05  5.4272466674407849e-05 
 5.4982614702132135e-05  5.5702054922605028e-05  5.6430908922936116e-05  5.7169299881186250e-05 
 5.7917352587184710e-05  5.8675193463619321e-05  5.9442950587401916e-05  6.0220753711313755e-05 
 6.1008734285934020e-05  6.1807025481855300e-05  6.2615762212189723e-05  6.3435081155369566e-05 
 6.4265120778246300e-05  6.5106021359491754e-05  6.5957925013305664e-05  6.6820975713432996e-05 
 6.7695319317496295e-05  6.8581103591645664e-05  6.9478478235531662e-05  7.0387594907604978e-05 
 7.1308607250746963e-05  7.2241670918235764e-05  7.3186943600051855e-05  7.4144585049528355e-05 
 7.5114757110349525e-05  7.6097623743902719e-05  7.7093351056988331e-05  7.8102107329892226e-05 
 7.9124063044825447e-05  8.0159390914736145e-05  8.1208265912498549e-05  8.2270865300483701e-05 
 8.3347368660517316e-05  8.4437957924229297e-05  8.5542817403800979e-05  8.6662133823114080e-05 
 8.7796096349307545e-05  8.8944896624747248e-05  9.0108728799414005e-05  9.1287789563715416e-05 
 9.2482278181726799e-05  9.3692396524867652e-05  9.4918349106018184e-05  9.6160343114082476e-05 
 9.7418588449003983e-05  9.8693297757239030e-05  9.9984686467694643e-05  1.0129297282813651e-04 
 1.0261837794207343e-04  1.0396112580612422e-04  1.0532144334787387e-04  1.0669956046422443e-04 
 1.0809571006024873e-04  1.0951012808855146e-04  1.1094305358914587e-04  1.1239472872985204e-04 
 1.1386539884722387e-04  1.1535531248801165e-04  1.1686472145116660e-04  1.1839388083039615e-04 
 1.1994304905727494e-04  1.2151248794492043e-04  1.2310246273224010e-04  1.2471324212875732e-04 
 1.2634509836002386e-04  1.2799830721362681e-04  1.2967314808579720e-04  1.3136990402862873e-04 
 1.3308886179791432e-04  1.3483031190160798e-04  1.3659454864892219e-04  1.3838187020006633e-04 
 1.4019257861663651e-04  1.4202697991266480e-04  1.4388538410633629e-04  1.4576810527238299e-04 
 1.4767546159516281e-04  1.4960777542243409e-04  1.5156537331983275e-04  1.5354858612606271e-04 
 1.5555774900880844e-04  1.5759320152137918e-04  1.5965528766009407e-04  1.6174435592241859e-04 
 1.6386075936586117e-04  1.6600485566764108e-04  1.6817700718513653e-04  1.7037758101712369e-04 
 1.7260694906581789e-04  1.7486548809972542e-04  1.7715357981731860e-04  1.7947161091154374e-04 
 1.8181997313517254e-04  1.8419906336701030e-04  1.8660928367896873e-04  1.8905104140401699e-04 
 1.9152474920502234e-04  1.9403082514449075e-04  1.9656969275522071e-04  1.9914178111188119e-04 
 2.0174752490352628e-04  2.0438736450705870e-04  2.0706174606165451e-04  2.0977112154416173e-04 
 2.1251594884548545e-04  2.1529669184797278e-04  2.1811382050380919e-04  2.2096781091444275e-04 
 2.2385914541104562e-04  2.2678831263602954e-04  2.2975580762562691e-04  2.3276213189355404e-04 
 2.3580779351576757e-04  2.3889330721633064e-04  2.4201919445440245e-04  2.4518598351236614e-04 
 2.4839420958510977e-04  2.5164441487047552e-04  2.5493714866089263e-04  2.5827296743620827e-04 
 2.6165243495773538e-04  2.6507612236352838e-04  2.6854460826490764e-04  2.7205847884424598e-04 
 2.7561832795403436e-04  2.7922475721724524e-04  2.8287837612900779e-04  2.8657980215961415e-04 
 2.9032966085887303e-04  2.9412858596182978e-04  2.9797721949586847e-04  3.0187621188921664e-04 
 3.0582622208086876e-04  3.0982791763194844e-04  3.1388197483852838e-04  3.1798907884592542e-04 
 3.2214992376449234e-04  3.2636521278692335e-04  3.3063565830709609e-04  3.3496198204046760e-04 
 3.3934491514604585e-04  3.4378519834995770e-04  3.4828358207063254e-04  3.5284082654562593e-04 
 3.5745770196010082e-04  3.6213498857699106e-04  3.6687347686886697e-04  3.7167396765152807e-04 
 3.7653727221934226e-04  3.8146421248235672e-04  3.8645562110520255e-04  3.9151234164781670e-04 
 3.9663522870800663e-04  4.0182514806587843e-04  4.0708297683015628e-04  4.1240960358641509e-04 
 4.1780592854725475e-04  4.2327286370443743e-04  4.2881133298301656e-04  4.3442227239748245e-04 
 4.4010663020995036e-04  4.4586536709042011e-04  4.5169945627913076e-04  4.5760988375104130e-04 
 4.6359764838246133e-04  4.6966376211986526e-04  4.7580925015091251e-04  4.8203515107770749e-04 
 4.8834251709232502e-04  4.9473241415463334e-04  5.0120592217244486e-04  5.0776413518402203e-04 
 5.1440816154297339e-04  5.2113912410556643e-04  5.2795816042049484e-04  5.3486642292112580e-04 
 5.4186507912026426e-04  5.4895531180746565e-04  5.5613831924892891e-04  5.6341531539000832e-04 
 5.7078753006037158e-04  5.7825620918184478e-04  5.8582261497897524e-04  5.9348802619235165e-04 
 6.0125373829471350e-04  6.0912106370988916e-04  6.1709133203459909e-04  6.2516589026315975e-04 
 6.3334610301513008e-04  6.4163335276593502e-04  6.5002904008050716e-04  6.5853458384998453e-04 
 6.6715142153150864e-04  6.7588100939115650e-04  6.8472482275005369e-04  6.9368435623370721e-04 
 7.0276112402459972e-04  7.1195666011809205e-04  7.2127251858166992e-04  7.3071027381758674e-04 
 7.4027152082893968e-04  7.4995787548923047e-04  7.5977097481545123e-04  7.6971247724474424e-04 
 7.7978406291468209e-04  7.8998743394721380e-04  8.0032431473632895e-04  8.1079645223948395e-04 
 8.2140561627284166e-04  8.3215359981037398e-04  8.4304221928688044e-04  8.5407331490496821e-04 
 8.6524875094605230e-04  8.7657041608542221e-04  8.8804022371143251e-04  8.9966011224887170e-04 
 9.1143204548655918e-04  9.2335801290923064e-04  9.3544003003376492e-04  9.4768013874981243e-04 
 9.6008040766487916e-04  9.7264293245392550e-04  9.8536983621354138e-04  9.9826326982075221e-04 
 1.0113254122965261e-03  1.0245584711740304e-03  1.0379646828717118e-03  1.0515463130712545e-03 
 1.0653056571004881e-03  1.0792450403213020e-03  1.0933668185226380e-03  1.1076733783186238e-03 
 1.1221671375519146e-03  1.1368505457023180e-03  1.1517260843007594e-03  1.1667962673486676e-03 
 1.1820636417428452e-03  1.1975307877059031e-03  1.2132003192223226e-03  1.2290748844802247e-03 
 1.2451571663189215e-03  1.2614498826823205e-03  1.2779557870782653e-03  1.2946776690438847e-03 
 1.3116183546170307e-03  1.3287807068138855e-03  1.3461676261128197e-03  1.3637820509445750e-03 
 1.3816269581888732e-03  1.3997053636775111e-03  1.4180203227040446e-03  1.4365749305401405e-03 
 1.4553723229586853e-03  1.4744156767637370e-03  1.4937082103274135e-03  1.5132531841338067e-03 
 1.5330539013300064e-03  1.5531137082843473e-03  1.5734359951519491e-03  1.5940241964476616e-03 
 1.6148817916265055e-03  1.6360123056717091e-03  1.6574193096904387e-03  1.6791064215173246e-03 
 1.7010773063258838e-03  1.7233356772479393e-03  1.7458852960011554e-03  1.7687299735247716e-03 
 1.7918735706236614e-03  1.8153199986208199e-03  1.8390732200183819e-03  1.8631372491672994e-03 
 1.8875161529457729e-03  1.9122140514465672e-03  1.9372351186733084e-03  1.9625835832459125e-03 
 1.9882637291152245e-03  2.0142798962870167e-03  2.0406364815554619e-03  2.0673379392462028e-03 
 2.0943887819691400e-03  2.1217935813810786e-03  2.1495569689583458e-03  2.1776836367795190e-03 
 2.2061783383184059e-03  2.2350458892473860e-03  2.2642911682512743e-03  2.2939191178518296e-03 
 2.3239347452430506e-03  2.3543431231374079e-03  2.3851493906231398e-03  2.4163587540327745e-03 
 2.4479764878230070e-03  2.4800079354661024e-03  2.5124585103529504e-03  2.5453336967079421e-03 
 2.5786390505158183e-03  2.6123802004606412e-03  2.6465628488770601e-03  2.6811927727140149e-03 
 2.7162758245110590e-03  2.7518179333874421e-03  2.7878251060441607e-03  2.8243034277790945e-03 
 2.8612590635154374e-03  2.8986982588435888e-03  2.9366273410766663e-03  2.9750527203198434e-03 
 3.0139808905536676e-03  3.0534184307315646e-03  3.0933720058916830e-03  3.1338483682833225e-03 
 3.1748543585080635e-03  3.2163969066758536e-03  3.2584830335762069e-03  3.3011198518647401e-03 
 3.3443145672652228e-03  3.3880744797873653e-03  3.4324069849605396e-03  3.4773195750836309e-03 
 3.5228198404912677e-03  3.5689154708365995e-03  3.6156142563908674e-03  3.6629240893599766e-03 
 3.7108529652183008e-03  3.7594089840599361e-03  3.8086003519676353e-03  3.8584353823996570e-03 
 3.9089224975947514e-03  3.9600702299955517e-03  4.0118872236905726e-03  4.0643822358750765e-03 
 4.1175641383310651e-03  4.1714419189266333e-03  4.2260246831349359e-03  4.2813216555730354e-03 
 4.3373421815608906e-03  4.3940957287007202e-03  4.4515918884770727e-03  4.5098403778777970e-03 
 4.5688510410362392e-03  4.6286338508949240e-03  4.6891989108910062e-03  4.7505564566637758e-03 
 4.8127168577845065e-03  4.8756906195089374e-03  4.9394883845526776e-03  5.0041209348898668e-03 
 5.0695991935753443e-03  5.1359342265906724e-03  5.2031372447143148e-03  5.2712196054162845e-03 
 5.3401928147775819e-03  5.4100685294347518e-03  5.4808585585498877e-03  5.5525748658063869e-03 
 5.6252295714308729e-03  5.6988349542415216e-03  5.7734034537232151e-03  5.8489476721298476e-03 
 5.9254803766141300e-03  6.0030145013852780e-03  6.0815631498949141e-03  6.1611395970515969e-03 
 6.2417572914642847e-03  6.3234298577152159e-03  6.4061710986624753e-03  6.4899949977727167e-03 
 6.5749157214843963e-03  6.6609476216019431e-03  6.7481052377212402e-03  6.8364032996868556e-03 
 6.9258567300814261e-03  7.0164806467475820e-03  7.1082903653429405e-03  7.2013014019284621e-03 
 7.2955294755907034e-03  7.3909905110983842e-03  7.4877006415937138e-03  7.5856762113189263e-03 
 7.6849337783784924e-03  7.7854901175374979e-03  7.8873622230565803e-03  7.9905673115640442e-03 
 8.0951228249654863e-03  8.2010464333915224e-03  8.3083560381840855e-03  8.4170697749217926e-03 
 8.5272060164849027e-03  8.6387833761603743e-03  8.7518207107875629e-03  8.8663371239450488e-03 
 8.9823519691792208e-03  9.0998848532750486e-03  9.2189556395696898e-03  9.3395844513094219e-03 
 9.4617916750505404e-03  9.5855979641047227e-03  9.7110242420294889e-03  9.8380917061643442e-03 
 9.9668218312131424e-03  1.0097236372873415e-02  1.0229357371513103e-02  1.0363207155895438e-02 
 1.0498808346952554e-02  1.0636183861608483e-02  1.0775356916652172e-02  1.0916351032661167e-02 
 1.1059190037976662e-02  1.1203898072730509e-02  1.1350499592925008e-02  1.1499019374565999e-02 
 1.1649482517850069e-02  1.1801914451406553e-02  1.1956340936595020e-02  1.2112788071859022e-02 
 1.2271282297136773e-02  1.2431850398329593e-02  1.2594519511828725e-02  1.2759317129101531e-02 
 1.2926271101337563e-02  1.3095409644155499e-02  1.3266761342371638e-02  1.3440355154830814e-02 
 1.3616220419300501e-02  1.3794386857428970e-02  1.3974884579768334e-02  1.4157744090863244e-02 
 1.4342996294406309e-02  1.4530672498460850e-02  1.4720804420752036e-02  1.4913424194027268e-02 
 1.5108564371486680e-02  1.5306257932284720e-02  1.5506538287103690e-02  1.5709439283800260e-02 
 1.5914995213125758e-02  1.6123240814521506e-02  1.6334211281989780e-02  1.6547942270041711e-02 
 1.6764469899722984e-02  1.6983830764718370e-02  1.7206061937536155e-02  1.7431200975773473e-02 
 1.7659285928463660e-02  1.7890355342506551e-02  1.8124448269183097e-02  1.8361604270755082e-02 
 1.8601863427151213e-02  1.8845266342740773e-02  1.9091854153195809e-02  1.9341668532443197e-02 
 1.9594751699707608e-02  1.9851146426646694e-02  2.0110896044579510e-02  2.0374044451809743e-02 
 2.0640636121044529e-02  2.0910716106910480e-02  2.1184330053568026e-02  2.1461524202425381e-02 
 2.1742345399953449e-02  2.2026841105602993e-02  2.2315059399825421e-02  2.2607048992198394e-02 
 2.2902859229658016e-02  2.3202540104838468e-02  2.3506142264520930e-02  2.3813717018192990e-02 
 2.4125316346720070e-02  2.4440992911130336e-02  2.4760800061514512e-02  2.5084791846042204e-02 
 2.5413023020096084e-02  2.5745549055525816e-02  2.6082426150022826e-02  2.6423711236617894e-02 
 2.6769461993302934e-02  2.7119736852778752e-02  2.7474595012330287e-02  2.7834096443831099e-02 
 2.8198301903878790e-02  2.8567272944062895e-02  2.8941071921367422e-02  2.9319762008709206e-02 
 2.9703407205614336e-02  3.0092072349034195e-02  3.0485823124303084e-02  3.0884726076239190e-02 
 3.1288848620390816e-02  3.1698259054429800e-02  3.2113026569693885e-02  3.2533221262880357e-02 
 3.2958914147892461e-02  3.3390177167840970e-02  3.3827083207202693e-02  3.4269706104138160e-02 
 3.4718120662970454e-02  3.5172402666827265e-02  3.5632628890448527e-02  3.6098877113161350e-02 
 3.6571226132025111e-02  3.7049755775148241e-02  3.7534546915179372e-02  3.8025681482975027e-02 
 3.8523242481446097e-02  3.9027313999585589e-02  3.9537981226679786e-02  4.0055330466705542e-02 
 4.0579449152915704e-02  4.1110425862615721e-02  4.1648350332133308e-02  4.2193313471984135e-02 
 4.2745407382235895e-02  4.3304725368073449e-02  4.3871361955567650e-02  4.4445412907650431e-02 
 4.5026975240299021e-02  4.5616147238931738e-02  4.6213028475018680e-02  4.6817719822909380e-02 
 4.7430323476880851e-02  4.8050942968408679e-02  4.8679683183664051e-02  4.9316650381239828e-02 
 4.9961952210108421e-02  5.0615697727814858e-02  5.1277997418907505e-02  5.1948963213610540e-02 
 5.2628708506740236e-02  5.3317348176868978e-02  5.4014998605740071e-02  5.4721777697936451e-02 
 5.5437804900806902e-02  5.6163201224652938e-02  5.6898089263179831e-02  5.7642593214215131e-02 
 5.8396838900698564e-02  5.9160953791946337e-02  5.9935067025193751e-02  6.0719309427419675e-02 
 6.1513813537456663e-02  6.2318713628390303e-02  6.3134145730251723e-02  6.3960247653006980e-02 
 6.4797159009847116e-02  6.5645021240783419e-02  6.6503977636550915e-02  6.7374173362824891e-02 
 6.8255755484754238e-02  6.9148872991815796e-02  7.0053676822994002e-02  7.0970319892289802e-02 
 7.1898957114563636e-02  7.2839745431716299e-02  7.3792843839212557e-02  7.4758413412951766e-02 
 7.5736617336490147e-02  7.6727620928618734e-02  7.7731591671303418e-02  7.8748699237989273e-02 
 7.9779115522275845e-02  8.0823014666967716e-02  8.1880573093504896e-02  8.2951969531778552e-02 
 8.4037385050336796e-02  8.5137003086985644e-02  8.6251009479790502e-02  8.7379592498483205e-02 
 8.8522942876280028e-02  8.9681253842116102e-02  9.0854721153301565e-02  9.2043543128604952e-02 
 9.3247920681769611e-02  9.4468057355468565e-02  9.5704159355703866e-02  9.6956435586655287e-02 
 9.8225097685986543e-02  9.9510360060611952e-02  1.0081243992293190e-01  1.0213155732754219e-01 
 1.0346793520842382e-01  1.0482179941661936e-01  1.0619337875840233e-01  1.0758290503394599e-01 
 1.0899061307649811e-01  1.1041674079206835e-01  1.1186152919963499e-01  1.1332522247187762e-01 
 1.1480806797644301e-01  1.1631031631775070e-01  1.1783222137934589e-01  1.1937404036680629e-01 
 1.2093603385121066e-01  1.2251846581317513e-01  1.2412160368746783e-01  1.2574571840820514e-01 
 1.2739108445464040e-01  1.2905797989755158e-01  1.3074668644623597e-01  1.3245748949611949e-01 
 1.3419067817698951e-01  1.3594654540185827e-01  1.3772538791646585e-01  1.3952750634943104e-01 
 1.4135320526305828e-01  1.4320279320480925e-01  1.4507658275944835e-01  1.4697489060187008e-01 
 1.4889803755061801e-01  1.5084634862210372e-01  1.5282015308553570e-01  1.5481978451856568e-01 
 1.5684558086366532e-01  1.5889788448523859e-01  1.6097704222748219e-01  1.6308340547300318e-01 
 1.6521733020220339e-01  1.6737917705344099e-01  1.6956931138397927e-01  1.7178810333173278e-01 
 1.7403592787782168e-01  1.7631316490994428e-01  1.7862019928657905e-01  1.8095742090202657e-01 
 1.8332522475230276e-01  1.8572401100189381e-01  1.8815418505138531e-01  1.9061615760597567e-01 
 1.9311034474488664e-01  1.9563716799168049e-01  1.9819705438550031e-01  2.0079043655323944e-01 
 2.0341775278265675e-01  2.0607944709644824e-01  2.0877596932728804e-01  2.1150777519385117e-01 
 2.1427532637783100e-01  2.1707909060196476e-01  2.1991954170907943e-01  2.2279715974217271e-01 
 2.2571243102554123e-01  2.2866584824697050e-01  2.3165791054100035e-01  2.3468912357327981e-01 
 2.3775999962602604e-01  2.4087105768460082e-01  2.4402282352522117e-01  2.4721582980381482e-01 
 2.5045061614604286e-01  2.5372772923849629e-01  2.5704772292108757e-01  2.6041115828065092e-01 
 2.6381860374576749e-01  2.6727063518283090e-01  2.7076783599337018e-01  2.7431079721264590e-01 
 2.7790011760953687e-01  2.8153640378773298e-01  2.8522027028825314e-01  2.8895233969330381e-01 
 2.9273324273149715e-01  2.9656361838444562e-01  3.0044411399475113e-01  3.0437538537540776e-01 
 3.0835809692063632e-01  3.1239292171816596e-01  3.1648054166299139e-01  3.2062164757261219e-01 
 3.2481693930378319e-01  3.2906712587079240e-01  3.3337292556528531e-01  3.3773506607765857e-01 
 3.4215428462004105e-01  3.4663132805088465e-01  3.5116695300118494e-01  3.5576192600235373e-01 
 3.6041702361576478e-01  3.6513303256399421e-01  3.6991074986377892e-01  3.7475098296071396e-01 
 3.7965454986571301e-01  3.8462227929325388e-01  3.8965501080143417e-01  3.9475359493385592e-01 
 3.9991889336337322e-01  4.0515177903771460e-01  4.1045313632701375e-01  4.1582386117327036e-01 
 4.2126486124176621e-01  4.2677705607446309e-01  4.3236137724540730e-01  4.3801876851816779e-01 
 4.4375018600533489e-01  4.4955659833010536e-01  4.5543898678998174e-01  4.6139834552261449e-01 
 4.6743568167381322e-01  4.7355201556775700e-01  4.7974838087943128e-01  4.8602582480932183e-01 
 4.9238540826039445e-01  4.9882820601738714e-01  5.0535530692845620e-01  5.1196781408919056e-01 
 5.1866684502903904e-01  5.2545353190017474e-01  5.3232902166883167e-01  5.3929447630914529e-01 
 5.4635107299952812e-01  5.5350000432161628e-01  5.6074247846181846e-01  5.6807971941550184e-01 
 5.7551296719385125e-01  5.8304347803343293e-01  5.9067252460850217e-01  5.9840139624608801e-01 
 6.0623139914389257e-01  6.1416385659104178e-01  6.2220010919172553e-01  6.3034151509175795e-01 
 6.3858945020811464e-01  6.4694530846146125e-01  6.5541050201173023e-01  6.6398646149677965e-01 
 6.7267463627417401e-01  6.8147649466612925e-01  6.9039352420766320e-01  6.9942723189799161e-01 
 7.0857914445521530e-01  7.1785080857433869e-01  7.2724379118866556e-01  7.3675967973461398e-01 
 7.4640008241999689e-01  7.5616662849581306e-01  7.6606096853159478e-01  7.7608477469435755e-01 
 7.8623974103120187e-01  7.9652758375560584e-01  8.0695004153747707e-01  8.1750887579698739e-01 
 8.2820587100225751e-01  8.3904283497093723e-01  8.5002159917573017e-01  8.6114401905391735e-01 
 8.7241197432093076e-01  8.8382736928802919e-01  8.9539213318413202e-01  9.0710822048186301e-01 
 9.1897761122786059e-01  9.3100231137741118e-01  9.4318435313346027e-01  9.5552579529005888e-01 
 9.6802872358030556e-01  9.8069525102883914e-01  9.9352751830894792e-01  1.0065276941043406e+00 
 1.0196979754756705e+00  1.0330405882318354e+00  1.0465577873061480e+00  1.0602518571374242e+00 
 1.0741251120560589e+00  1.0881798966751521e+00  1.1024185862867573e+00  1.1168435872633078e+00 
 1.1314573374643015e+00  1.1462623066483046e+00  1.1612609968903465e+00  1.1764559430047763e+00 
 1.1918497129736529e+00  1.2074449083807395e+00  1.2232441648511785e+00  1.2392501524969164e+00 
 1.2554655763679639e+00  1.2718931769095450e+00  1.2885357304252527e+00  1.3053960495462418e+00 
 1.3224769837065731e+00  1.3397814196247739e+00  1.3573122817917007e+00  1.3750725329647848e+00 
 1.3930651746687457e+00  1.4112932477028555e+00  1.4297598326548415e+00  1.4484680504215131e+00 
 1.4674210627361997e+00  1.4866220727030930e+00  1.5060743253385773e+00  1.5257811081196464e+00 
 1.5457457515394946e+00  1.5659716296703772e+00  1.5864621607338409e+00  1.6072208076783994e+00 
 1.6282510787647964e+00  1.6495565281588997e+00  1.6711407565323659e+00  1.6930074116711631e+00 
 1.7151601890920538e+00  1.7376028326671484e+00  1.7603391352566264e+00  1.7833729393497404e+00 
 1.8067081377142047e+00  1.8303486740540826e+00  1.8542985436762829e+00  1.8785617941657740e+00 
 1.9031425260696380e+00  1.9280448935900711e+00  1.9532731052864543e+00  1.9788314247866099e+00 
 2.0047241715073687e+00  2.0309557213845455e+00  2.0575305076125074e+00  2.0844530213933776e+00 
 2.1117278126960630e+00  2.1393594910252109e+00  2.1673527262002246e+00  2.1957122491444747e+00 
 2.2244428526848385e+00  2.2535493923616947e+00  2.2830367872495261e+00  2.3129100207882503e+00 
 2.3431741416254379e+00  2.3738342644695414e+00  2.4048955709542952e+00  2.4363633105144245e+00 
 2.4682428012728113e+00  2.5005394309392694e+00  2.5332586577210865e+00  2.5664060112454550e+00 
 2.5999870934940184e+00  2.6340075797496030e+00  2.6684732195553580e+00  2.7033898376864425e+00 
 2.7387633351344256e+00  2.7745996901045675e+00  2.8109049590261534e+00  2.8476852775760402e+00 
 2.8849468617156035e+00  2.9226960087412497e+00  2.9609390983486721e+00  2.9996825937110372e+00 
 3.0389330425712742e+00  3.0786970783486600e+00  3.1189814212598841e+00  3.1597928794547787e+00 
 3.2011383501669188e+00  3.2430248208792509e+00  3.2854593705050248e+00  3.3284491705841246e+00 
 3.3720014864950842e+00  3.4161236786829514e+00  3.4608232039032210e+00  3.5061076164820442e+00 
 3.5519845695929284e+00  3.5984618165501399e+00  3.6455472121190362e+00  3.6932487138435350e+00 
 3.7415743833909634e+00  3.7905323879144932e+00  3.8401310014334151e+00  3.8903786062314616e+00 
 3.9412836942734391e+00  3.9928548686403857e+00  4.0451008449835202e+00  4.0980304529971807e+00 
 4.1516526379111074e+00  4.2059764620021749e+00  4.2610111061259532e+00  4.3167658712682835e+00 
 4.3732501801171804e+00  4.4304735786552749e+00  4.4884457377731177e+00  4.5471764549035791e+00 
 4.6066756556776394e+00  4.6669533956018432e+00  4.7280198617577032e+00  4.7898853745233456e+00 
 4.8525603893176728e+00  4.9160554983673581e+00  4.9803814324969551e+00  5.0455490629424329e+00 
 5.1115694031884527e+00  5.1784536108296324e+00  5.2462129894562617e+00  5.3148589905646046e+00 
 5.3844032154922310e+00  5.4548574173786770e+00  5.5262335031517464e+00  5.5985435355398208e+00 
 5.6717997351104756e+00  5.7460144823357968e+00  5.8212003196847020e+00  5.8973699537426540e+00 
 5.9745362573591008e+00  6.0527122718230135e+00  6.1319112090669066e+00  6.2121464538996731e+00 
 6.2934315662686586e+00  6.3757802835513200e+00  6.4592065228768858e+00  6.5437243834783434e+00 
 6.6293481490753061e+00  6.7160922902879525e+00  6.8039714670826061e+00  6.8930005312493083e+00 
 6.9831945289117980e+00  7.0745687030703532e+00  7.1671384961778850e+00  7.2609195527497539e+00 
 7.3559277220077295e+00  7.4521790605585423e+00  7.5496898351074977e+00  7.6484765252075784e+00 
 7.7485558260445320e+00  7.8499446512584008e+00  7.9526601358019597e+00  8.0567196388365687e+00 
 8.1621407466659281e+00  8.2689412757081460e+00  8.3771392755068383e+00  8.4867530317814897e+00 
 8.5978010695178089e+00  8.7103021560984732e+00  8.8242753044748810e+00  8.9397397763803745e+00 
 9.0567150855855196e+00  9.1752210011959878e+00  9.2952775509935730e+00  9.4169050248209327e+00 
 9.5401239780106355e+00  9.6649552348590397e+00  9.7914198921456617e+00  9.9195393226985829e+00 
 1.0049335179006505e+01  1.0180829396878067e+01  1.0314044199149080e+01  1.0449002099438154e+01 
 1.0585725905951669e+01  1.0724238725338340e+01  1.0864563966594320e+01  1.1006725345019369e+01 
 1.1150746886224795e+01  1.1296652930193851e+01  1.1444468135395235e+01  1.1594217482950443e+01 
 1.1745926280855629e+01  1.1899620168258719e+01  1.2055325119792494e+01  1.2213067449964353e+01 
 1.2372873817603537e+01  1.2534771230366534e+01  1.2698787049301432e+01  1.2864948993472002e+01 
 1.3033285144642315e+01  1.3203823952022530e+01  1.3376594237077013e+01  1.3551625198395154e+01 
 1.3728946416626000e+01  1.3908587859477477e+01  1.4090579886780990e+01  1.4274953255622313e+01 
 1.4461739125539605e+01  1.4650969063789452e+01  1.4842675050681803e+01  1.5036889484984721e+01 
 1.5233645189399853e+01  1.5432975416109544e+01  1.5634913852396531e+01  1.5839494626337181e+01 
 1.6046752312569211e+01  1.6256721938134920e+01  1.6469438988400711e+01  1.6684939413054401e+01 
 1.6903259632180671e+01  1.7124436542416170e+01  1.7348507523185152e+01  1.7575510443016679e+01 
 1.7805483665944490e+01  1.8038466057990622e+01  1.8274496993733848e+01  1.8513616362964083e+01 
 1.8755864577423857e+01  1.9001282577637991e+01  1.9249911839832635e+01  1.9501794382944865e+01 
 1.9756972775723966e+01  2.0015490143925675e+01  2.0277390177600505e+01  2.0542717138477542e+01 
 2.0811515867444594e+01  2.1083831792126666e+01  2.1359710934563171e+01  2.1639199918985792e+01 
 2.1922345979698115e+01  2.2209196969058308e+01  2.2499801365566309e+01  2.2794208282056793e+01 
 2.3092467473999367e+01  2.3394629347907355e+01  2.3700744969856618e+01  2.4010866074115853e+01 
 2.4325045071889800e+01  2.4643335060176856e+01  2.4965789830742601e+01  2.5292463879210736e+01 
 2.5623412414272973e+01  2.5958691367019465e+01  2.6298357400391133e+01  2.6642467918756104e+01 
 2.6991081077610996e+01  2.7344255793409388e+01  2.7702051753518841e+01  2.8064529426308201e+01 