  <PP_INFO>

############################################################
#    Opium Parameter File                                  #
############################################################
#-----------------------------------------------------------
#Command line   : /home/camelto2/Codes/opium-modified/opium Mn Mn.log ae ps nl tc2 ke upf qmcpack rpt plot vi 
 
#Opium version  : 4.1 
#Compile Host   : tarvalon 
#Compile OS     : Linux 4.15.0-47-generic x86_64 
#Compile Date   : Thu May  9 12:26:14 EDT 2019 
#-----------------------------------------------------------
#Execution Host : tarvalon 
#Execution Date : Fri May 17 15:18:36 2019
 
#-----------------------------------------------------------
############################################################
[Atom]
Mn
8            
100   2.00  -
200   2.00  -
210   6.00  -
300   2.00  -
310   6.00  -
320   5.00  -
400   0.00  -
410   0.00  -

[Pseudo]
5 1.331 1.366 1.231  1.331 1.366
g

[Gaussinfo]
15 3
2 2 4
2 18.92044965  244.66870492
2  8.32764757   33.54162717
2 20.17347020  162.35033685
2  7.80047874   24.17956695
1 21.91937433   15.00000000
3 21.35527127  328.79061500
2 21.27162653 -162.05172805
2  7.93913962   -1.82694272

[KBdesign]
s

[Relativity]
nrl

[XC]
pbe

[Configs]
11

300  2.00 -
310  6.00 -
320  5.00 -
400  2.00 -
410  0.00 -

300  2.00 -
310  6.00 -
320  6.00 -
400  1.00 -
410  0.00 -

300  2.00 -
310  6.00 -
320  7.00 -
400  0.00 -
410  0.00 -

300  2.00 -
310  6.00 -
320  5.00 -
400  1.00 -
410  0.00 -

300  2.00 -
310  6.00 -
320  6.00 -
400  0.00 -
410  0.00 -

300  2.00 -
310  6.00 -
320  5.00 -
400  0.00 -
410  0.00 -

300  2.00 -
310  6.00 -
320  4.00 -
400  0.00 -
410  0.00 -

300  2.00 -
310  6.00 -
320  3.00 -
400  0.00 -
410  0.00 -

300  2.00 -
310  6.00 -
320  2.00 -
400  0.00 -
410  0.00 -

300  2.00 -
310  6.00 -
320  1.00 -
400  0.00 -
410  0.00 -

300  2.00 -
310  6.00 -
320  0.00 -
400  0.00 -
410  0.00 -
############################################################
  </PP_INFO>



<PP_HEADER>
   0         Version Number
   Mn        Element
   NC        Norm - Conserving pseudopotential
    F      Nonlinear Core Correction
SLA  PW   PBE  PBE     PBE  Exchange-Correlation functional
 15          Z valence
 0          Total energy
 0.000000   0.000000     Suggested cutoff for wfc and rho
 2           Max angular momentum component
 1159           Number of points in mesh
 3  2     Number of Wavefuncitons, Number of Projectors
 Wavefunctions         nl  l   occ
                       S  0  2.000000
                       P  1  6.000000
                       D  2  5.000000
</PP_HEADER>
<PP_MESH>
  <PP_R>
 3.4199518933533923e-05  3.4647015102548500e-05  3.5100366699578647e-05  3.5559650342123290e-05 
 3.6024943650211160e-05  3.6496325259518806e-05  3.6973874834660057e-05  3.7457673082649767e-05 
 3.7947801766543322e-05  3.8444343719254874e-05  3.8947382857556230e-05  3.9457004196259061e-05 
 3.9973293862582534e-05  4.0496339110709104e-05  4.1026228336530608e-05  4.1563051092587357e-05 
 4.2106898103202822e-05  4.2657861279816233e-05  4.3216033736515759e-05  4.3781509805775103e-05 
 4.4354385054395848e-05  4.4934756299658514e-05  4.5522721625684896e-05  4.6118380400014529e-05 
 4.6721833290397935e-05  4.7333182281809908e-05  4.7952530693685053e-05  4.8579983197379093e-05 
 4.9215645833858549e-05  4.9859626031621933e-05  5.0512032624855393e-05  5.1172975871825965e-05 
 5.1842567473515562e-05  5.2520920592498471e-05  5.3208149872066380e-05  5.3904371455603206e-05 
 5.4609703006213652e-05  5.5324263726608518e-05  5.6048174379250293e-05  5.6781557306762226e-05 
 5.7524536452604662e-05  5.8277237382021495e-05  5.9039787303261351e-05  5.9812315089075859e-05 
 6.0594951298499524e-05  6.1387828198914492e-05  6.2191079788404021e-05  6.3004841818398594e-05 
 6.3829251816618096e-05  6.4664449110314384e-05  6.5510574849818044e-05  6.6367772032392737e-05 
 6.7236185526402649e-05  6.8115962095795143e-05  6.9007250424904404e-05  6.9910201143579399e-05 
 7.0824966852640713e-05  7.1751702149670381e-05  7.2690563655139419e-05  7.3641710038876675e-05 
 7.4605302046884894e-05  7.5581502528506878e-05  7.6570476463947459e-05  7.7572390992155599e-05 
 7.8587415439071190e-05  7.9615721346241666e-05  8.0657482499812752e-05  8.1712874959898905e-05 
 8.2782077090337933e-05  8.3865269588834489e-05  8.4962635517499009e-05  8.6074360333785287e-05 
 8.7200631921833280e-05  8.8341640624221992e-05  8.9497579274137867e-05  9.0668643227963968e-05 
 9.1855030398295799e-05  9.3056941287388730e-05  9.4274579021043744e-05  9.5508149382935947e-05 
 9.6757860849392484e-05  9.8023924624625650e-05  9.9306554676426793e-05  1.0060596777232746e-04 
 1.0192238351623360e-04  1.0325602438553910e-04  1.0460711576872509e-04  1.0597588600345115e-04 
 1.0736256641514456e-04  1.0876739135609541e-04  1.1019059824506235e-04  1.1163242760739701e-04 
 1.1309312311569328e-04  1.1457293163096867e-04  1.1607210324438449e-04  1.1759089131951133e-04 
 1.1912955253514884e-04  1.2068834692870468e-04  1.2226753794014139e-04  1.2386739245649856e-04 
 1.2548818085699725e-04  1.2713017705873479e-04  1.2879365856297738e-04  1.3047890650205848e-04 
 1.3218620568689084e-04  1.3391584465510036e-04  1.3566811571978914e-04  1.3744331501893781e-04 
 1.3924174256545307e-04  1.4106370229787068e-04  1.4290950213172193e-04  1.4477945401157187e-04 
 1.4667387396373899e-04  1.4859308214970387e-04  1.5053740292021795e-04  1.5250716487011913e-04 
 1.5450270089386518e-04  1.5652434824179367e-04  1.5857244857711808e-04  1.6064734803366982e-04 
 1.6274939727439549e-04  1.6487895155061980e-04  1.6703637076208406e-04  1.6922201951776996e-04 
 1.7143626719751898e-04  1.7367948801445932e-04  1.7595206107824806e-04  1.7825437045914196e-04 
 1.8058680525290610e-04  1.8294975964657203e-04  1.8534363298505655e-04  1.8776882983865116e-04 
 1.9022576007139645e-04  1.9271483891034952e-04  1.9523648701575845e-04  1.9779113055215473e-04 
 2.0037920126037633e-04  2.0300113653053283e-04  2.0565737947592536e-04  2.0834837900793375e-04 
 2.1107458991188381e-04  2.1383647292390708e-04  2.1663449480880580e-04  2.1946912843893825e-04 
 2.2234085287413469e-04  2.2525015344265954e-04  2.2819752182323338e-04  2.3118345612812755e-04 
 2.3420846098734651e-04  2.3727304763391095e-04  2.4037773399025836e-04  2.4352304475577235e-04 
 2.4670951149545847e-04  2.4993767272977986e-04  2.5320807402566835e-04  2.5652126808872695e-04 
 2.5987781485663794e-04  2.6327828159379405e-04  2.6672324298716735e-04  2.7021328124343256e-04 
 2.7374898618736190e-04  2.7733095536150573e-04  2.8095979412718014e-04  2.8463611576677356e-04 
 2.8836054158739330e-04  2.9213370102586705e-04  2.9595623175512063e-04  2.9982877979194529e-04 
 3.0375199960617632e-04  3.0772655423129988e-04  3.1175311537650751e-04  3.1583236354021637e-04 
 3.1996498812507509e-04  3.2415168755447457e-04  3.2839316939058317e-04  3.3269015045392624e-04 
 3.3704335694453082e-04  3.4145352456465476e-04  3.4592139864312292e-04  3.5044773426128777e-04 
 3.5503329638064235e-04  3.5967885997209884e-04  3.6438521014696141e-04  3.6915314228961048e-04 
 3.7398346219192675e-04  3.7887698618947031e-04  3.8383454129944374e-04  3.8885696536046011e-04 
 3.9394510717413961e-04  3.9909982664855894e-04  4.0432199494357823e-04  4.0961249461806824e-04 
 4.1497221977906620e-04  4.2040207623288085e-04  4.2590298163817637e-04  4.3147586566105912e-04 
 4.3712167013219323e-04  4.4284134920597124e-04  4.4863586952177020e-04  4.5450621036731523e-04 
 4.6045336384418145e-04  4.6647833503546046e-04  4.7258214217562396e-04  4.7876581682260643e-04 
 4.8503040403214092e-04  4.9137696253437606e-04  4.9780656491280430e-04  5.0432029778553044e-04 
 5.1091926198891351e-04  5.1760457276361005e-04  5.2437735994305249e-04  5.3123876814439419e-04 
 5.3818995696195196e-04  5.4523210116318036e-04  5.5236639088721115e-04  5.5959403184598663e-04 
 5.6691624552803225e-04  5.7433426940488742e-04  5.8184935714024376e-04  5.8946277880181407e-04 
 5.9717582107598024e-04  6.0498978748524455e-04  6.1290599860852797e-04  6.2092579230435183e-04 
 6.2905052393693868e-04  6.3728156660527199e-04  6.4562031137515327e-04  6.5406816751429578e-04 
 6.6262656273049364e-04  6.7129694341290828e-04  6.8008077487651160e-04  6.8897954160972673e-04 
 6.9799474752531277e-04  7.0712791621452482e-04  7.1638059120461019e-04  7.2575433621966398e-04 
 7.3525073544490486e-04  7.4487139379440358e-04  7.5461793718231945e-04  7.6449201279768291e-04 
 7.7449528938277386e-04  7.8462945751514481e-04  7.9489622989332943e-04  8.0529734162629600e-04 
 8.1583455052668282e-04  8.2650963740787443e-04  8.3732440638496026e-04  8.4828068517963826e-04 
 8.5938032542910183e-04  8.7062520299897113e-04  8.8201721830032001e-04  8.9355829661084745e-04 
 9.0525038840025718e-04  9.1709546965989012e-04  9.2909554223667202e-04  9.4125263417142876e-04 
 9.5356880004163289e-04  9.6604612130862994e-04  9.7868670666941123e-04  9.9149269241298943e-04 
 1.0044662427814333e-03  1.0176095503356341e-03  1.0309248363258507e-03  1.0444143510671079e-03 
 1.0580803743195021e-03  1.0719252156734900e-03  1.0859512149402123e-03  1.1001607425469284e-03 
 1.1145561999376245e-03  1.1291400199788611e-03  1.1439146673709365e-03  1.1588826390644255e-03 
 1.1740464646821695e-03  1.1894087069467883e-03  1.2049719621137892e-03  1.2207388604103368e-03 
 1.2367120664797707e-03  1.2528942798319342e-03  1.2692882352993986e-03  1.2858967034996573e-03 
 1.3027224913033661e-03  1.3197684423087114e-03  1.3370374373219826e-03  1.3545323948444398e-03 
 1.3722562715655438e-03  1.3902120628626448e-03  1.4084028033072098e-03  1.4268315671776680e-03 
 1.4455014689789764e-03  1.4644156639689754e-03  1.4835773486916368e-03  1.5029897615172841e-03 
 1.5226561831898884e-03  1.5425799373815217e-03  1.5627643912540612e-03  1.5832129560282540e-03 
 1.6039290875602150e-03  1.6249162869254798e-03  1.6461781010106932e-03  1.6677181231130414e-03 
 1.6895399935475252e-03  1.7116474002621873e-03  1.7340440794613799e-03  1.7567338162371943e-03 
 1.7797204452091500e-03  1.8030078511722520e-03  1.8265999697535354e-03  1.8505007880771915e-03 
 1.8747143454384038e-03  1.8992447339859963e-03  1.9240960994140208e-03  1.9492726416623792e-03 
 1.9747786156266360e-03  2.0006183318770979e-03  2.0267961573873124e-03  2.0533165162720957e-03 
 2.0801838905352217e-03  2.1074028208268865e-03  2.1349779072110937e-03  2.1629138099430755e-03 
 2.1912152502568797e-03  2.2198870111632819e-03  2.2489339382581164e-03  2.2783609405411971e-03 
 2.3081729912459484e-03  2.3383751286798955e-03  2.3689724570761482e-03  2.3999701474560304e-03 
 2.4313734385029962e-03  2.4631876374479706e-03  2.4954181209662992e-03  2.5280703360864073e-03 
 2.5611498011103655e-03  2.5946621065464958e-03  2.6286129160541793e-03  2.6630079674010293e-03 
 2.6978530734325869e-03  2.7331541230547073e-03  2.7689170822287942e-03  2.8051479949800667e-03 
 2.8418529844190157e-03  2.8790382537762162e-03  2.9167100874506941e-03  2.9548748520720029e-03 
 2.9935389975762009e-03  3.0327090582959008e-03  3.0723916540645975e-03  3.1125934913354171e-03 
 3.1533213643145457e-03  3.1945821561094540e-03  3.2363828398921592e-03  3.2787304800777099e-03 
 3.3216322335180900e-03  3.3650953507117403e-03  3.4091271770289133e-03  3.4537351539530602e-03 
 3.4989268203384455e-03  3.5447098136842524e-03  3.5910918714253249e-03  3.6380808322398132e-03 
 3.6856846373739347e-03  3.7339113319840591e-03  3.7827690664963588e-03  3.8322660979842522e-03 
 3.8824107915638724e-03  3.9332116218077770e-03  3.9846771741771916e-03  4.0368161464729583e-03 
 4.0896373503054931e-03  4.1431497125839611e-03  4.1973622770249529e-03  4.2522842056808910e-03 
 4.3079247804884363e-03  4.3642934048371664e-03  4.4213996051587498e-03  4.4792530325369643e-03 
 4.5378634643387329e-03  4.5972408058665287e-03  4.6573950920323938e-03  4.7183364890538634e-03 
 4.7800752961720807e-03  4.8426219473923920e-03  4.9059870132477264e-03  4.9701812025850188e-03 
 5.0352153643750596e-03  5.1011004895459800e-03  5.1678477128407462e-03  5.2354683146989597e-03 
 5.3039737231632793e-03  5.3733755158107835e-03  5.4436854217096127e-03  5.5149153234012142e-03 
 5.5870772589084973e-03  5.6601834237703210e-03  5.7342461731025455e-03  5.8092780236860854e-03 
 5.8852916560822709e-03  5.9622999167758981e-03  6.0403158203463118e-03  6.1193525516668986e-03 
 6.1994234681333749e-03  6.2805421019211886e-03  6.3627221622725230e-03  6.4459775378131771e-03 
 6.5303222988997702e-03  6.6157706999976770e-03  6.7023371820900575e-03  6.7900363751184235e-03 
 6.8788831004551266e-03  6.9688923734082201e-03  7.0600794057590508e-03  7.1524596083331286e-03 
 7.2460485936045593e-03  7.3408621783346050e-03  7.4369163862447532e-03  7.5342274507247554e-03 
 7.6328118175761220e-03  7.7326861477914873e-03  7.8338673203703808e-03  7.9363724351717690e-03 
 8.0402188158040372e-03  8.1454240125526725e-03  8.2520058053463293e-03  8.3599822067616583e-03 
 8.4693714650675000e-03  8.5801920673088602e-03  8.6924627424312811e-03  8.8062024644460848e-03 
 8.9214304556369858e-03  9.0381661898087558e-03  9.1564293955783155e-03  9.2762400597089130e-03 
 9.3976184304879525e-03  9.5205850211489834e-03  9.6451606133385031e-03  9.7713662606280921e-03 
 9.8992232920725332e-03  1.0028753315814433e-02  1.0159978222736113e-02  1.0292920190159163e-02 
 1.0427601685592496e-02  1.0564045470529394e-02  1.0702274604294263e-02  1.0842312447939706e-02 
 1.0984182668194604e-02  1.1127909241463854e-02  1.1273516457880401e-02  1.1421028925410392e-02 
 1.1570471574011929e-02  1.1721869659848316e-02  1.1875248769556401e-02  1.2030634824570783e-02 
 1.2188054085504592e-02  1.2347533156587598e-02  1.2509098990162401e-02  1.2672778891239397e-02 
 1.2838600522111453e-02  1.3006591907028858e-02  1.3176781436935497e-02  1.3349197874266992e-02 
 1.3523870357811621e-02  1.3700828407634839e-02  1.3880101930068245e-02  1.4061721222763829e-02 
 1.4245716979814306e-02  1.4432120296940555e-02  1.4620962676746832e-02  1.4812276034044782e-02 
 1.5006092701247137e-02  1.5202445433831955e-02  1.5401367415878381e-02  1.5602892265674835e-02 
 1.5807054041400596e-02  1.6013887246881655e-02  1.6223426837422041e-02  1.6435708225711273e-02 
 1.6650767287809228e-02  1.6868640369209261e-02  1.7089364290980683e-02  1.7312976355991622e-02 
 1.7539514355213285e-02  1.7769016574106733e-02  1.8001521799093166e-02  1.8237069324109012e-02 
 1.8475698957246621e-02  1.8717451027481957e-02  1.8962366391490279e-02  1.9210486440551032e-02 
 1.9461853107543052e-02  1.9716508874031341e-02  1.9974496777446556e-02  2.0235860418358377e-02 
 2.0500643967844207e-02  2.0768892174954118e-02  2.1040650374273571e-02  2.1315964493585055e-02 
 2.1594881061630017e-02  2.1877447215972300e-02  2.2163710710964520e-02  2.2453719925818686e-02 
 2.2747523872782328e-02  2.3045172205421776e-02  2.3346715227013676e-02  2.3652203899046386e-02 
 2.3961689849832567e-02  2.4275225383234508e-02  2.4592863487503603e-02  2.4914657844235476e-02 
 2.5240662837442349e-02  2.5570933562743939e-02  2.5905525836678937e-02  2.6244496206137988e-02 
 2.6587901957920313e-02  2.6935801128415312e-02  2.7288252513410816e-02  2.7645315678029775e-02 
 2.8007050966796846e-02  2.8373519513836820e-02  2.8744783253206327e-02  2.9120904929360990e-02 
 2.9501948107759291e-02  2.9887977185605291e-02  3.0279057402731936e-02  3.0675254852626725e-02 
 3.1076636493601689e-02  3.1483270160109468e-02  3.1895224574207563e-02  3.2312569357172388e-02 
 3.2735375041265620e-02  3.3163713081654188e-02  3.3597655868486398e-02  3.4037276739126050e-02 
 3.4482649990546628e-02  3.4933850891887649e-02  3.5390955697175347e-02  3.5854041658209802e-02 
 3.6323187037620545e-02  3.6798471122093342e-02  3.7279974235769703e-02  3.7767777753821848e-02 
 3.8261964116205346e-02  3.8762616841591671e-02  3.9269820541483001e-02  3.9783660934511807e-02 
 4.0304224860927551e-02  4.0831600297272709e-02  4.1365876371251255e-02  4.1907143376791342e-02 
 4.2455492789305153e-02  4.3011017281148547e-02  4.3573810737282830e-02  4.4143968271141594e-02 
 4.4721586240705102e-02  4.5306762264785035e-02  4.5899595239522147e-02  4.6500185355100213e-02 
 4.7108634112678238e-02  4.7725044341544412e-02  4.8349520216494524e-02  4.8982167275437763e-02 
 4.9623092437232848e-02  5.0272404019757584e-02  5.0930211758214883e-02  5.1596626823678118e-02 
 5.2271761841879510e-02  5.2955730912244030e-02  5.3648649627172487e-02  5.4350635091576907e-02 
 5.5061805942671578e-02  5.5782282370022980e-02  5.6512186135862147e-02  5.7251640595662796e-02 
 5.8000770718988494e-02  5.8759703110613161e-02  5.9528566031917293e-02  6.0307489422564566e-02 
 6.1096604922461911e-02  6.1896045894006983e-02  6.2705947444626722e-02  6.3526446449610821e-02 
 6.4357681575244047e-02  6.5199793302240933e-02  6.6052923949487724e-02  6.6917217698094333e-02 
 6.7792820615761362e-02  6.8679880681465924e-02  6.9578547810470417e-02  7.0488973879658565e-02 
 7.1411312753202949e-02  7.2345720308568506e-02  7.3292354462855966e-02  7.4251375199490544e-02 
 7.5222944595259300e-02  7.6207226847702522e-02  7.7204388302863608e-02  7.8214597483401760e-02 
 7.9238025117072924e-02  8.0274844165583059e-02  8.1325229853819112e-02  8.2389359699462317e-02 
 8.3467413542989380e-02  8.4559573578065733e-02  8.5666024382336725e-02  8.6786952948621779e-02 
 8.7922548716516488e-02  8.9073003604408466e-02  9.0238512041911925e-02  9.1419271002726954e-02 
 9.2615480037928091e-02  9.3827341309689422e-02  9.5055059625450244e-02  9.6298842472527998e-02 
 9.7558900053184169e-02  9.8835445320148943e-02  1.0012869401261076e-01  1.0143886469267668e-01 
 1.0276617878230997e-01  1.0411086060075092e-01  1.0547313740242732e-01  1.0685323941536100e-01 
 1.0825139988007711e-01  1.0966785508902158e-01  1.1110284442649618e-01  1.1255661040911438e-01 
 1.1402939872678734e-01  1.1552145828424613e-01  1.1703304124310721e-01  1.1856440306448833e-01 
 1.2011580255218210e-01  1.2168750189639441e-01  1.2327976671805527e-01  1.2489286611370921e-01 
 1.2652707270099348e-01  1.2818266266471090e-01  1.2985991580350581e-01  1.3155911557715064e-01 
 1.3328054915445145e-01  1.3502450746177996e-01  1.3679128523224113e-01  1.3858118105548281e-01 
 1.4039449742815951e-01  1.4223154080505401e-01  1.4409262165086942e-01  1.4597805449269818e-01 
 1.4788815797317814e-01  1.4982325490434364e-01  1.5178367232218185e-01  1.5376974154190232e-01 
 1.5578179821393023e-01  1.5782018238063206e-01  1.5988523853378350e-01  1.6197731567278950e-01 
 1.6409676736366585e-01  1.6624395179879287e-01  1.6841923185745056e-01  1.7062297516714622e-01 
 1.7285555416574463e-01  1.7511734616440972e-01  1.7740873341137278e-01  1.7973010315653229e-01 
 1.8208184771690031e-01  1.8446436454290491e-01  1.8687805628556031e-01  1.8932333086451578e-01 
 1.9180060153699521e-01  1.9431028696763838e-01  1.9685281129925639e-01  1.9942860422451270e-01 
 2.0203810105854228e-01  2.0468174281252099e-01  2.0735997626819738e-01  2.1007325405339991e-01 
 2.1282203471853212e-01  2.1560678281406878e-01  2.1842796896906641e-01  2.2128606997069913e-01 
 2.2418156884483917e-01  2.2711495493768780e-01  2.3008672399847643e-01  2.3309737826324953e-01 
 2.3614742653974335e-01  2.3923738429337615e-01  2.4236777373436266e-01  2.4553912390596899e-01 
 2.4875197077392233e-01  2.5200685731699018e-01  2.5530433361874533e-01  2.5864495696053103e-01 
 2.6202929191564311e-01  2.6545791044474404e-01  2.6893139199252558e-01  2.7245032358563653e-01 
 2.7601529993189217e-01  2.7962692352077889e-01  2.8328580472527976e-01  2.8699256190502681e-01 
 2.9074782151080586e-01  2.9455221819042821e-01  2.9840639489598753e-01  3.0231100299252028e-01 
 3.0626670236808828e-01  3.1027416154530085e-01  3.1433405779429707e-01  3.1844707724720600e-01 
 3.2261391501410458e-01  3.2683527530049283e-01  3.3111187152630639e-01  3.3544442644648625e-01 
 3.3983367227312578e-01  3.4428035079921648e-01  3.4878521352401337e-01  3.5334902178003774e-01 
 3.5797254686174784e-01  3.6265657015588687e-01  3.6740188327353990e-01  3.7220928818391824e-01 
 3.7707959734989371e-01  3.8201363386530729e-01  3.8701223159407350e-01  3.9207623531110569e-01 
 3.9720650084508480e-01  4.0240389522309661e-01  4.0766929681716130e-01  4.1300359549268051e-01 
 4.1840769275882644e-01  4.2388250192089943e-01  4.2942894823467836e-01  4.3504796906279147e-01 
 4.4074051403313319e-01  4.4650754519935082e-01  4.5235003720343825e-01  4.5826897744044998e-01 
 4.6426536622537357e-01  4.7034021696218575e-01  4.7649455631511978e-01  4.8272942438217420e-01 
 4.8904587487089196e-01  4.9544497527643933e-01  5.0192780706201534e-01  5.0849546584162164e-01 
 5.1514906156522366e-01  5.2188971870633472e-01  5.2871857645205511e-01  5.3563678889559740e-01 
 5.4264552523133025e-01  5.4974596995237623e-01  5.5693932305079352e-01  5.6422680022037508e-01 
 5.7160963306210821e-01  5.7908906929231496e-01  5.8666637295352020e-01  5.9434282462807730e-01 
 6.0211972165458993e-01  6.0999837834716542e-01  6.1798012621753662e-01  6.2606631420009118e-01 
 6.3425830887984391e-01  6.4255749472339341e-01  6.5096527431290030e-01  6.5948306858312633e-01 
 6.6811231706157637e-01  6.7685447811178179e-01  6.8571102917976712e-01  6.9468346704374273e-01 
 7.0377330806706351e-01  7.1298208845449507e-01  7.2231136451184186e-01  7.3176271290896200e-01 
 7.4133773094622979e-01  7.5103803682448300e-01  7.6086526991850278e-01  7.7082109105407171e-01 
 7.8090718278865756e-01  7.9112524969576925e-01  8.0147701865303422e-01  8.1196423913404447e-01 
 8.2258868350402170e-01  8.3335214731935170e-01  8.4425644963103752e-01  8.5530343329212299e-01 
 8.6649496526913961e-01  8.7783293695762865e-01  8.8931926450179244e-01  9.0095588911832136e-01 
 9.1274477742447346e-01  9.2468792177043113e-01  9.3678734057601476e-01  9.4904507867180010e-01 
 9.6146320764470017e-01  9.7404382618806762e-01  9.8678906045637949e-01  9.9970106442456175e-01 
 1.0127820202520170e+00  1.0260341386514142e+00  1.0394596592623038e+00  1.0530608510296233e+00 
 1.0668400125871538e+00  1.0807994726459937e+00  1.0949415903881181e+00  1.1092687558650849e+00 
 1.1237833904019618e+00  1.1384879470065281e+00  1.1533849107838499e+00  1.1684767993562617e+00 
 1.1837661632888528e+00  1.1992555865205174e+00  1.2149476868006484e+00  1.2308451161315417e+00 
 1.2469505612165919e+00  1.2632667439143503e+00  1.2797964216985274e+00  1.2965423881240110e+00 
 1.3135074732989835e+00  1.3306945443632188e+00  1.3481065059726332e+00  1.3657463007901804e+00 
 1.3836169099831701e+00  1.4017213537270887e+00  1.4200626917160222e+00  1.4386440236797398e+00 
 1.4574684899075712e+00  1.4765392717791130e+00  1.4958595923018916e+00  1.5154327166560599e+00 
 1.5352619527462195e+00  1.5553506517604654e+00  1.5757022087367434e+00  1.5963200631366221e+00 
 1.6172076994265665e+00  1.6383686476668253e+00  1.6598064841080153e+00  1.6815248317955198e+00 
 1.7035273611817894e+00  1.7258177907466585e+00  1.7483998876257774e+00  1.7712774682472658e+00 
 1.7944543989767030e+00  1.8179345967705389e+00  1.8417220298380894e+00  1.8658207183121589e+00 
 1.8902347349284574e+00  1.9149682057139001e+00  1.9400253106839178e+00  1.9654102845488892e+00 
 1.9911274174298164e+00  2.0171810555833645e+00  2.0435756021363924e+00  2.0703155178300889e+00 
 2.0974053217738500e+00  2.1248495922090185e+00  2.1526529672826182e+00  2.1808201458312104e+00 
 2.2093558881750113e+00  2.2382650169223943e+00  2.2675524177849287e+00  2.2972230404030589e+00 
 2.3272818991826303e+00  2.3577340741423196e+00  2.3885847117721739e+00  2.4198390259033804e+00 
 2.4515022985894159e+00  2.4835798809987253e+00  2.5160771943190841e+00  2.5489997306737897e+00 
 2.5823530540498454e+00  2.6161428012382855e+00  2.6503746827868078e+00  2.6850544839648687e+00 
 2.7201880657414095e+00  2.7557813657753716e+00  2.7918403994191761e+00  2.8283712607353322e+00 
 2.8653801235263554e+00  2.9028732423781309e+00  2.9408569537169877e+00  2.9793376768805460e+00 
 3.0183219152026100e+00  3.0578162571122407e+00  3.0978273772472225e+00  3.1383620375820875e+00 
 3.1794270885709093e+00  3.2210294703050435e+00  3.2631762136860210e+00  3.3058744416137866e+00 
 3.3491313701904857e+00  3.3929543099400035e+00  3.4373506670434613e+00  3.4823279445908759e+00 
 3.5278937438492037e+00  3.5740557655469711e+00  3.6208218111757207e+00  3.6681997843084582e+00 
 3.7161976919354145e+00  3.7648236458172182e+00  3.8140858638558091e+00  3.8639926714832855e+00 
 3.9145525030689186e+00  3.9657739033445836e+00  4.0176655288488403e+00  4.0702361493899044e+00 
 4.1234946495277711e+00  4.1774500300757236e+00  4.2321114096214947e+00  4.2874880260683277e+00 
 4.3435892381962011e+00  4.4004245272434925e+00  4.4580034985093242e+00  4.5163358829768825e+00 
 4.5754315389579894e+00  4.6353004537591422e+00  4.6959527453694427e+00  4.7573986641705339e+00 
 4.8196485946689371e+00  4.8827130572510704e+00  4.9466027099612084e+00  5.0113283503027226e+00 
 5.0769009170628854e+00  5.1433314921615469e+00  5.2106313025240079e+00  5.2788117219784043e+00 
 5.3478842731778968e+00  5.4178606295480396e+00  5.4887526172596059e+00  5.5605722172272536e+00 
 5.6333315671343112e+00  5.7070429634840885e+00  5.7817188636780203e+00  5.8573718881209524e+00 
 5.9340148223540892e+00  6.0116606192157338e+00  6.0903224010303596e+00  6.1700134618263158e+00 
 6.2507472695825497e+00  6.3325374685047260e+00  6.4153978813311312e+00  6.4993425116687487e+00 
 6.5843855463599024e+00  6.6705413578798654e+00  6.7578245067658438e+00  6.8462497440777428e+00 
 6.9358320138911269e+00  7.0265864558228088e+00  7.1185284075894808e+00  7.2116734075998226e+00 
 7.3060371975805412e+00  7.4016357252367140e+00  7.4984851469470604e+00  7.5966018304943610e+00 
 7.6960023578316621e+00  7.7967035278846675e+00  7.8987223593907938e+00  8.0020760937753792e+00 
 8.1067821980655292e+00  8.2128583678420792e+00  8.3203225302301913e+00  8.4291928469290838e+00 
 8.5394877172814017e+00  8.6512257813827471e+00  8.7644259232319026e+00  8.8791072739222621e+00 
 8.9952892148750507e+00  9.1129913811148135e+00  9.2322336645877989e+00  9.3530362175236945e+00 
 9.4754194558414824e+00  9.5994040625997226e+00  9.7250109914920522e+00  9.8522614703884113e+00 
 9.9811770049225998e+00  1.0111779382126789e+01  1.0244090674113570e+01  1.0378133241806202e+01 
 1.0513929738717660e+01  1.0651503114779134e+01  1.0790876620218611e+01  1.0932073809490237e+01 
 1.1075118545255059e+01  1.1220035002413884e+01  1.1366847672192884e+01  1.1515581366282683e+01 
 1.1666261221031601e+01  1.1818912701693684e+01  1.1973561606732508e+01  1.2130234072181105e+01 
 1.2288956576059030e+01  1.2449755942847217e+01  1.2612659348021369e+01  1.2777694322644681e+01 
 1.2944888758020674e+01  1.3114270910406859e+01  1.3285869405790134e+01  1.3459713244724641e+01 
 1.3635831807232931e+01  1.3814254857771239e+01  1.3995012550259773e+01  1.4178135433178785e+01 
 1.4363654454731339e+01  1.4551600968073629e+01  1.4742006736613767e+01  1.4934903939379769e+01 
 1.5130325176458044e+01  1.5328303474502777e+01  1.5528872292317546e+01  1.5732065526509935e+01 
 1.5937917517220141e+01  1.6146463053924546e+01  1.6357737381315204e+01  1.6571776205256306e+01 
 1.6788615698818525e+01  1.7008292508392373e+01  1.7230843759881520e+01  1.7456307064977164e+01 
 1.7684720527514486e+01  1.7916122749912304e+01  1.8150552839696967e+01  1.8388050416111607e+01 
 1.8628655616811944e+01  1.8872409104649488e+01  1.9119352074543880e+01  1.9369526260444776e+01 
 1.9622973942385034e+01  1.9879737953626133e+01  2.0139861687897096e+01  2.0403389106728127e+01 
 2.0670364746880235e+01  2.0940833727872036e+01  2.1214841759605061e+01  2.1492435150088831e+01 
 2.1773660813267039e+01  2.2058566276946113e+01  2.2347199690827509e+01  2.2639609834645153e+01 
 2.2935846126409317e+01  2.3235958630758411e+01  2.3539998067419898e+01  2.3848015819782244e+01 
 2.4160063943578724e+01  2.4476195175684957e+01  2.4796462943031592e+01  2.5120921371633582e+01 
 2.5449625295737601e+01  2.5782630267089168e+01  2.6119992564321027e+01  2.6461769202464367e+01 
 2.6808017942584492e+01  2.7158797301542595e+01  2.7514166561885219e+01  2.7874185781863179e+01 
 2.8238915805581538e+01  2.8608418273282386e+01  2.8982755631762224e+01  2.9361991144925643e+01 
 2.9746188904476885e+01  3.0135413840751784e+01  3.0529731733690980e+01  3.0929209223956878e+01 
 3.1333913824196138e+01  3.1743913930449430e+01  3.2159278833710552e+01  3.2580078731636775e+01 
 3.3006384740412379e+01  3.3438268906767497e+01  3.3875804220154180e+01  3.4319064625081758e+01 
 3.4768125033613664e+01  3.5223061338027762e+01  3.5683950423642266e+01  3.6150870181809630e+01 
 3.6623899523080283e+01  3.7103118390538832e+01  3.7588607773314322e+01  3.8080449720268028e+01 
 3.8578727353859620e+01  3.9083524884195107e+01  3.9594927623258599e+01  4.0113021999330172e+01 
 4.0637895571592509e+01  4.1169637044928571e+01  4.1708336284912939e+01  4.2254084332999334e+01 
 4.2806973421906825e+01  4.3367096991207347e+01  4.3934549703117263e+01  4.4509427458495495e+01 
 4.5091827413050950e+01  4.5681847993762133e+01  4.6279588915511468e+01  4.6885151197937503e+01 
 4.7498637182507110e+01  4.8120150549811903e+01  4.8749796337090238e+01  4.9387680955978766e+01 
 5.0033912210496318e+01  5.0688599315262998e+01  5.1351852913957721e+01  5.2023785098017278e+01 
 5.2704509425580042e+01  5.3394140940677573e+01  5.4092796192677291e+01  5.4800593255979656e+01 
 5.5517651749972991e+01  5.6244092859249456e+01  5.6980039354085520e+01  5.7725615611190435e+01 
 5.8480947634726178e+01  5.9246163077602624e+01  6.0021391263050667e+01  6.0806763206478891e+01 
 6.1602411637614978e+01  6.2408471022937526e+01  6.3225077588401156e+01  6.4052369342459031e+01 
 6.4890486099386592e+01  6.5739569502910612e+01  6.6599763050147146e+01  6.7471212115853021e+01 
 6.8354063976994496e+01  6.9248467837637378e+01  7.0154574854162860e+01  7.1072538160813380e+01 
 7.2002512895572593e+01  7.2944656226384097e+01  7.3899127377713214e+01  7.4866087657456362e+01 
 7.5845700484202013e+01  7.6838131414849599e+01  7.7843548172588484e+01  7.8862120675243716e+01 