  <PP_INFO>

############################################################
#    Opium Parameter File                                  #
############################################################
#-----------------------------------------------------------
#Command line   : opium Tb Tb.log ae ps nl tc2 ke upf qmcpack rpt 
 
#Opium version  : 4.1 
#Compile Host   : cori04 
#Compile OS     : Linux 5.3.18-150200.24.129-default x86_64 
#Compile Date   : Fri Nov 18 11:23:16 PST 2022 
#-----------------------------------------------------------
#Execution Host : cori04 
#Execution Date : Fri Nov 18 11:28:10 2022
 
#-----------------------------------------------------------
############################################################
[Atom]
Tb
15
100   2.00 -
200   2.00 -
210   6.00 -
300   2.00 -
310   6.00 -
320  10.00 -
400   2.00 -
410   6.00 -
420  10.00 -
500   2.00 -
510   5.00 -
520   2.00 -
430   8.50 -
600   0.50 -
610   0.50 -

[Pseudo]
6 1.176092 1.288137 1.877981 0.553329 3.242022 3.2
g

[KBDesign] 
s

[Relativity]
frl

[xc]  
pbe

[Gaussinfo]
19 5   3
2 2 2 2 4   1 1 1
2    8.996757  161.119164
2    5.104371   89.334835
2    7.640657   88.693021
2    3.878305   57.109488
2    7.456305   55.901690
2    2.530445   29.364333
2    4.939345  -23.952530
2    3.912490   -7.090915
1    4.526254   19.000000
3    3.879308   85.998831
2    4.406058  -85.722649
2    1.899664   -3.133952
4    2.080465    2.963688
4    2.660751    0.922456
4    4.708055    0.178089

[Configs]
12

500   2.00 -
510   6.00 -
520   0.00 -
430   9.00 -
600   2.00 -
610   0.00 -

500   2.00 -
510   6.00 -
520   1.00 -
430   8.00 -
600   2.00 -
610   0.00 -

500   2.00 -
510   6.00 -
520   2.00 -
430   8.00 -
600   1.00 -
610   0.00 -

500   2.00 -
510   6.00 -
520   0.00 -
430   8.00 -
600   2.00 -
610   1.00 -

500   2.00 -
510   6.00 -
520   0.00 -
430   9.00 -
600   1.00 -
610   0.00 -

500   2.00 -
510   6.00 -
520   1.00 -
430   8.00 -
600   1.00 -
610   0.00 -

500   2.00 -
510   6.00 -
520   0.00 -
430   8.00 -
600   2.00 -
610   0.00 -

500   2.00 -
510   6.00 -
520   0.00 -
430   9.00 -
600   0.00 -
610   0.00 -

500   2.00 -
510   6.00 -
520   1.00 -
430   8.00 -
600   0.00 -
610   0.00 -

500   2.00 -
510   6.00 -
520   0.00 -
430   8.00 -
600   1.00 -
610   0.00 -

500   2.00 -
510   6.00 -
520   0.00 -
430   8.00 -
600   0.00 -
610   0.00 -

500   2.00 -
510   6.00 -
520   1.00 -
430   7.00 -
600   0.00 -
610   0.00 -

#500   2.00 -
#510   6.00 -
#520   0.00 -
#430   7.00 -
#600   1.00 -
#610   0.00 -
#
#500   2.00 -
#510   6.00 -
#520   0.00 -
#430   7.00 -
#600   0.00 -
#610   0.00 -
############################################################
  </PP_INFO>



<PP_HEADER>
   0         Version Number
   Tb        Element
   NC        Norm - Conserving pseudopotential
    F      Nonlinear Core Correction
SLA  PW   PBE  PBE     PBE  Exchange-Correlation functional
 19          Z valence
 0          Total energy
 0.000000   0.000000     Suggested cutoff for wfc and rho
 3           Max angular momentum component
 1183           Number of points in mesh
 7  6     Number of Wavefuncitons, Number of Projectors
 Wavefunctions         nl  l   occ
                      5S  0  2.000000
                      5P  1  1.666667
                      5P  1  3.333333
                      5D  2  0.800000
                      5D  2  1.200000
                      4F  3  3.642857
                      4F  3  4.857143
</PP_HEADER>
<PP_MESH>
  <PP_R>
 2.4871131731971627e-05  2.5196567191772815e-05  2.5526260931399679e-05  2.5860268669878920e-05 
 2.6198646855313310e-05  2.6541452674421587e-05  2.6888744062203043e-05  2.7240579711728820e-05 
 2.7597019084061100e-05  2.7958122418302159e-05  2.8323950741774946e-05  2.8694565880336838e-05 
 2.9070030468828345e-05  2.9450407961658576e-05  2.9835762643529168e-05  3.0226159640298493e-05 
 3.0621664929988217e-05  3.1022345353933624e-05  3.1428268628080037e-05  3.1839503354426910e-05 
 3.2256119032621783e-05  3.2678186071705855e-05  3.3105775802013284e-05  3.3538960487226229e-05 
 3.3977813336587462e-05  3.4422408517273059e-05  3.4872821166926741e-05  3.5329127406358325e-05 
 3.5791404352408317e-05  3.6259730130980869e-05  3.6734183890247225e-05  3.7214845814021943e-05 
 3.7701797135314202e-05  3.8195120150056214e-05  3.8694898231011671e-05  3.9201215841865770e-05 
 3.9714158551499830e-05  4.0233813048452632e-05  4.0760267155570990e-05  4.1293609844852012e-05 
 4.1833931252479614e-05  4.2381322694057713e-05  4.2935876680042724e-05  4.3497686931378201e-05 
 4.4066848395333784e-05  4.4643457261551546e-05  4.5227610978302245e-05  4.5819408268954379e-05 
 4.6418949148658590e-05  4.7026334941250550e-05  4.7641668296374769e-05  4.8265053206832846e-05 
 4.8896595026158385e-05  4.9536400486421961e-05  5.0184577716269171e-05  5.0841236259194585e-05 
 5.1506487092054866e-05  5.2180442643824120e-05  5.2863216814594685e-05  5.3554924994826532e-05 
 5.4255684084848360e-05  5.4965612514614298e-05  5.5684830263718688e-05  5.6413458881672925e-05 
 5.7151621508447662e-05  5.7899442895283716e-05  5.8657049425775339e-05  5.9424569137229423e-05 
 6.0202131742303872e-05  6.0989868650929664e-05  6.1787912992519270e-05  6.2596399638465802e-05 
 6.3415465224936728e-05  6.4245248175965597e-05  6.5085888726846135e-05  6.5937528947832206e-05 
 6.6800312768148157e-05  6.7674386000313123e-05  6.8559896364783808e-05  6.9456993514919254e-05 
 7.0365829062273106e-05  7.1286556602215945e-05  7.2219331739893457e-05  7.3164312116524011e-05 
 7.4121657436040399e-05  7.5091529492080257e-05  7.6074092195329323e-05  7.7069511601223086e-05 
 7.8077955938010354e-05  7.9099595635184238e-05  8.0134603352285168e-05  8.1183154008080714e-05 
 8.2245424810127406e-05  8.3321595284719071e-05  8.4411847307227313e-05  8.5516365132838840e-05 
 8.6635335427695114e-05  8.7768947300439077e-05  8.8917392334175377e-05  9.0080864618848175e-05 
 9.1259560784042712e-05  9.2453680032216347e-05  9.3663424172364131e-05  9.4888997654125114e-05 
 9.6130607602334592e-05  9.7388463852028981e-05  9.8662778983908355e-05  9.9953768360262944e-05 
 1.0126165016137006e-04  1.0258664542236698e-04  1.0392897807060641e-04  1.0528887496350079e-04 
 1.0666656592686173e-04  1.0806228379374104e-04  1.0947626444378029e-04  1.1090874684307454e-04 
 1.1235997308455881e-04  1.1383018842892197e-04  1.1531964134605649e-04  1.1682858355705039e-04 
 1.1835727007672877e-04  1.1990595925675196e-04  1.2147491282927722e-04  1.2306439595119269e-04 
 1.2467467724892908e-04  1.2630602886385829e-04  1.2795872649828610e-04  1.2963304946204629e-04 
 1.3132928071970471e-04  1.3304770693838117e-04  1.3478861853619665e-04  1.3655230973135468e-04 
 1.3833907859186513e-04  1.4014922708591789e-04  1.4198306113291688e-04  1.4384089065518077e-04 
 1.4572302963032060e-04  1.4762979614430286e-04  1.4956151244520672e-04  1.5151850499768485e-04 
 1.5350110453813610e-04  1.5550964613060179e-04  1.5754446922339155e-04  1.5960591770645117e-04 
 1.6169433996948070e-04  1.6381008896081321e-04  1.6595352224706397e-04  1.6812500207355992e-04 
 1.7032489542556008e-04  1.7255357409027685e-04  1.7481141471970929e-04  1.7709879889429725e-04 
 1.7941611318741062e-04  1.8176374923068039e-04  1.8414210378018544e-04  1.8655157878350552e-04 
 1.8899258144765066e-04  1.9146552430788106e-04  1.9397082529742601e-04  1.9650890781811552e-04 
 1.9908020081193649e-04  2.0168513883352484e-04  2.0432416212360618e-04  2.0699771668339771e-04 
 2.0970625434998331e-04  2.1245023287267520e-04  2.1523011599037471e-04  2.1804637350994509e-04 
 2.2089948138561010e-04  2.2378992179939160e-04  2.2671818324259869e-04  2.2968476059838497e-04 
 2.3269015522538435e-04  2.3573487504244207e-04  2.3881943461445362e-04  2.4194435523932831e-04 
 2.4511016503608949e-04  2.4831739903412759e-04  2.5156659926362190e-04  2.5485831484714467e-04 
 2.5819310209246403e-04  2.6157152458656157e-04  2.6499415329087972e-04  2.6846156663781583e-04 
 2.7197435062847815e-04  2.7553309893172198e-04  2.7913841298448072e-04  2.8279090209341049e-04 
 2.8649118353786356e-04  2.9023988267421114e-04  2.9403763304152982e-04  2.9788507646867055e-04 
 3.0178286318272967e-04  3.0573165191893908e-04  3.0973211003199372e-04  3.1378491360883616e-04 
 3.1789074758291705e-04  3.2205030584995007e-04  3.2626429138518258e-04  3.3053341636219981e-04 
 3.3485840227328386e-04  3.3923998005134739e-04  3.4367889019346352e-04  3.4817588288601142e-04 
 3.5273171813145925e-04  3.5734716587680713e-04  3.6202300614370881e-04  3.6676002916029857e-04 
 3.7155903549474081e-04  3.7642083619052826e-04  3.8134625290354974e-04  3.8633611804095286e-04 
 3.9139127490182227e-04  3.9651257781969917e-04  4.0170089230696612e-04  4.0695709520111967e-04 
 4.1228207481295957e-04  4.1767673107671394e-04  4.2314197570213159e-04  4.2867873232856155e-04 
 4.3428793668105189e-04  4.3997053672848856e-04  4.4572749284380487e-04  4.5155977796628648e-04 
 4.5746837776600017e-04  4.6345429081037532e-04  4.6951852873296343e-04  4.7566211640440712e-04 
 4.8188609210564489e-04  4.8819150770338402e-04  4.9457942882786795e-04  5.0105093505297077e-04 
 5.0760712007864742e-04  5.1424909191577126e-04  5.2097797307339123e-04  5.2779490074843878e-04 
 5.3470102701791596e-04  5.4169751903359903e-04  5.4878555921929130e-04  5.5596634547065433e-04 
 5.6324109135765562e-04  5.7061102632966496e-04  5.7807739592323308e-04  5.8564146197259248e-04 
 5.9330450282290843e-04  6.0106781354632400e-04  6.0893270616082802e-04  6.1690050985199209e-04 
 6.2497257119760398e-04  6.3315025439524344e-04  6.4143494149283484e-04  6.4982803262221545e-04 
 6.5833094623576286e-04  6.6694511934611541e-04  6.7567200776903161e-04  6.8451308636942538e-04 
 6.9346984931062275e-04  7.0254381030687902e-04  7.1173650287919936e-04  7.2104948061450834e-04 
 7.3048431742820850e-04  7.4004260783017714e-04  7.4972596719424225e-04  7.5953603203118391e-04 
 7.6947446026530756e-04  7.7954293151463977e-04  7.8974314737478553e-04  8.0007683170650265e-04 
 8.1054573092703903e-04  8.2115161430527874e-04  8.3189627426075640e-04  8.4278152666657777e-04 
 8.5380921115630769e-04  8.6498119143487123e-04  8.7629935559352607e-04  8.8776561642895345e-04 
 8.9938191176652544e-04  9.1115020478780228e-04  9.2307248436231365e-04  9.3515076538368388e-04 
 9.4738708911015334e-04  9.5978352350955577e-04  9.7234216360880853e-04  9.8506513184797940e-04 
 9.9795457843898303e-04  1.0110126817289714e-03  1.0242416485684801e-03  1.0376437146843911e-03 
 1.0512211450577757e-03  1.0649762343066835e-03  1.0789113070739356e-03  1.0930287184199962e-03 
 1.1073308542209840e-03  1.1218201315718898e-03  1.1364989991950714e-03  1.1513699378540951e-03 
 1.1664354607729879e-03  1.1816981140609800e-03  1.1971604771428045e-03  1.2128251631946243e-03 
 1.2286948195856648e-03  1.2447721283256276e-03  1.2610598065179556e-03  1.2775606068190296e-03 
 1.2942773179033743e-03  1.3112127649349493e-03  1.3283698100446117e-03  1.3457513528138201e-03 
 1.3633603307646727e-03  1.3811997198563538e-03  1.3992725349880810e-03  1.4175818305086237e-03 
 1.4361307007325044e-03  1.4549222804629389e-03  1.4739597455216272e-03  1.4932463132854758e-03 
 1.5127852432303399e-03  1.5325798374818855e-03  1.5526334413736536e-03  1.5729494440124333e-03 
 1.5935312788510213e-03  1.6143824242684940e-03  1.6355064041580541e-03  1.6569067885225804e-03 
 1.6785871940779656e-03  1.7005512848643500e-03  1.7228027728653527e-03  1.7453454186354071e-03 
 1.7681830319353034e-03  1.7913194723760419e-03  1.8147586500711257e-03  1.8385045262973724e-03 
 1.8625611141643821e-03  1.8869324792927611e-03  1.9116227405012228e-03  1.9366360705026760e-03 
 1.9619766966094253e-03  1.9876489014475978e-03  2.0136570236809095e-03  2.0400054587439223e-03 
 2.0666986595848729e-03  2.0937411374182362e-03  2.1211374624871297e-03  2.1488922648356954e-03 
 2.1770102350915903e-03  2.2054961252587105e-03  2.2343547495202952e-03  2.2635909850525280e-03 
 2.2932097728487998e-03  2.3232161185547441e-03  2.3536150933142035e-03  2.3844118346262643e-03 
 2.4156115472135082e-03  2.4472195039016201e-03  2.4792410465105104e-03  2.5116815867570969e-03 
 2.5445466071698881e-03  2.5778416620155582e-03  2.6115723782376217e-03  2.6457444564074021e-03 
 2.6803636716874429e-03  2.7154358748075241e-03  2.7509669930534477e-03  2.7869630312687644e-03 
 2.8234300728696101e-03  2.8603742808728052e-03  2.8978018989374351e-03  2.9357192524200344e-03 
 2.9741327494435883e-03  3.0130488819805215e-03  3.0524742269498581e-03  3.0924154473287320e-03 
 3.1328792932784535e-03  3.1738726032852970e-03  3.2154023053162172e-03  3.2574754179897042e-03 
 3.3000990517619380e-03  3.3432804101284747e-03  3.3870267908416535e-03  3.4313455871439365e-03 
 3.4762442890173811e-03  3.5217304844494673e-03  3.5678118607154878e-03  3.6144962056777036e-03 
 3.6617914091015293e-03  3.7097054639889109e-03  3.7582464679291648e-03  3.8074226244674890e-03 
 3.8572422444913819e-03  3.9077137476352039e-03  3.9588456637031123e-03  4.0106466341106274e-03 
 4.0631254133450291e-03  4.1162908704449183e-03  4.1701519904990833e-03  4.2247178761650071e-03 
 4.2799977492072403e-03  4.3360009520558990e-03  4.3927369493855558e-03  4.4502153297147984e-03 
 4.5084458070267092e-03  4.5674382224105414e-03  4.6272025457249049e-03  4.6877488772826860e-03 
 4.7490874495580235e-03  4.8112286289156243e-03  4.8741829173627018e-03  4.9379609543238395e-03 
 5.0025735184390831e-03  5.0680315293855560e-03  5.1343460497228965e-03  5.2015282867628803e-03 
 5.2695895944634679e-03  5.3385414753476523e-03  5.4083955824474148e-03  5.4791637212731172e-03 
 5.5508578518086542e-03  5.6234900905327246e-03  5.6970727124665511e-03  5.7716181532483637e-03 
 5.8471390112350844e-03  5.9236480496314605e-03  6.0011581986470792e-03  6.0796825576816078e-03 
 6.1592343975386153e-03  6.2398271626683821e-03  6.3214744734400308e-03  6.4041901284434188e-03 
 6.4879881068210998e-03  6.5728825706308719e-03  6.6588878672391785e-03  6.7460185317458447e-03 
 6.8342892894405526e-03  6.9237150582914467e-03  7.0143109514663017e-03  7.1060922798866950e-03 
 7.1990745548155821e-03  7.2932734904787204e-03  7.3887050067204460e-03  7.4853852316941402e-03 
 7.5833305045879314e-03  7.6825573783860582e-03  7.7830826226663631e-03  7.8849232264343854e-03 
 7.9880964009945588e-03  8.0926195828589474e-03  8.1985104366940498e-03  8.3057868583062012e-03 
 8.4144669776659835e-03  8.5245691619722369e-03  8.6361120187561629e-03  8.7491143990260384e-03 
 8.8635954004530892e-03  8.9795743705990329e-03  9.0970709101858699e-03  9.2161048764084295e-03 
 9.3366963862903229e-03  9.4588658200837408e-03  9.5826338247137679e-03  9.7080213172677666e-03 
 9.8350494885304143e-03  9.9637398065649946e-03  1.0094114020341546e-02  1.0226194163412512e-02 
 1.0360002557636418e-02  1.0495561816950374e-02  1.0632894851191845e-02  1.0772024869970488e-02 
 1.0912975386590616e-02  1.1055770222025016e-02  1.1200433508940739e-02  1.1346989695777590e-02 
 1.1495463550879971e-02  1.1645880166682753e-02  1.1798264963952030e-02  1.1952643696081225e-02 
 1.2109042453443505e-02  1.2267487667801110e-02  1.2428006116772380e-02  1.2590624928357242e-02 
 1.2755371585521903e-02  1.2922273930843546e-02  1.3091360171215753e-02  1.3262658882615597e-02 
 1.3436199014933016e-02  1.3612009896863411e-02  1.3790121240864277e-02  1.3970563148176671e-02 
 1.4153366113912401e-02  1.4338561032207760e-02  1.4526179201444738e-02  1.4716252329540460e-02 
 1.4908812539305977e-02  1.5103892373875053e-02  1.5301524802204041e-02  1.5501743224643710e-02 
 1.5704581478583994e-02  1.5910073844172576e-02  1.6118255050108339e-02  1.6329160279510598e-02 
 1.6542825175865056e-02  1.6759285849047761e-02  1.6978578881427675e-02  1.7200741334049210e-02 
 1.7425810752895628e-02  1.7653825175234401e-02  1.7884823136045603e-02  1.8118843674534407e-02 
 1.8355926340728818e-02  1.8596111202163680e-02  1.8839438850652250e-02  1.9085950409146270e-02 
 1.9335687538685843e-02  1.9588692445440259e-02  1.9845007887840937e-02  2.0104677183807703e-02 
 2.0367744218069604e-02  2.0634253449581582e-02  2.0904249919038040e-02  2.1177779256484952e-02 
 2.1454887689031372e-02  2.1735622048661949e-02  2.2020029780151631e-02  2.2308158949083962e-02 
 2.2600058249974259e-02  2.2895777014499134e-02  2.3195365219833643e-02  2.3498873497097492e-02 
 2.3806353139911945e-02  2.4117856113068468e-02  2.4433435061310928e-02  2.4753143318232692e-02 
 2.5077034915290109e-02  2.5405164590933980e-02  2.5737587799860469e-02  2.6074360722383106e-02 
 2.6415540273927306e-02  2.6761184114649336e-02  2.7111350659180952e-02  2.7466099086501605e-02 
 2.7825489349939853e-02  2.8189582187305596e-02  2.8558439131154925e-02  2.8932122519189269e-02 
 2.9310695504790631e-02  2.9694222067694568e-02  3.0082767024803066e-02  3.0476396041138651e-02 
 3.0875175640941960e-02  3.1279173218914498e-02  3.1688457051608485e-02  3.2103096308965781e-02 
 3.2523161066007777e-02  3.2948722314678228e-02  3.3379851975840973e-02  3.3816622911434911e-02 
 3.4259108936787720e-02  3.4707384833090833e-02  3.5161526360037672e-02  3.5621610268627202e-02 
 3.6087714314134996e-02  3.6559917269254130e-02  3.7038298937407947e-02  3.7522940166236890e-02 
 3.8013922861262150e-02  3.8511329999727784e-02  3.9015245644624053e-02  3.9525754958894328e-02 
 4.0042944219827778e-02  4.0566900833640451e-02  4.1097713350247173e-02  4.1635471478226646e-02 
 4.2180266099982357e-02  4.2732189287102075e-02  4.3291334315918056e-02  4.3857795683270993e-02 
 4.4431669122480200e-02  4.5013051619522779e-02  4.5602041429424471e-02  4.6198738092865010e-02 
 4.6803242453000743e-02  4.7415656672507245e-02  4.8036084250845247e-02  4.8664630041752172e-02 
 4.9301400270962671e-02  4.9946502554161075e-02  5.0600045915168639e-02  5.1262140804368868e-02 
 5.1932899117373893e-02  5.2612434213935126e-02  5.3300860937101138e-02  5.3998295632626737e-02 
 5.4704856168635414e-02  5.5420661955539442e-02  5.6145833966220492e-02  5.6880494756474345e-02 
 5.7624768485723128e-02  5.8378780937998524e-02  5.9142659543199638e-02  5.9916533398628749e-02 
 6.0700533290809371e-02  6.1494791717589287e-02  6.2299442910533027e-02  6.3114622857607355e-02 
 6.3940469326163513e-02  6.4777121886220299e-02  6.5624721934051680e-02  6.6483412716083157e-02 
 6.7353339353100547e-02  6.8234648864776079e-02  6.9127490194514821e-02  7.0032014234626558e-02 
 7.0948373851826896e-02  7.1876723913072191e-02  7.2817221311732364e-02  7.3770024994106245e-02 
 7.4735295986283923e-02  7.5713197421360512e-02  7.6703894567006048e-02  7.7707554853396102e-02 
 7.8724347901508021e-02  7.9754445551786707e-02  8.0798021893186966e-02  8.1855253292594257e-02 
 8.2926318424631426e-02  8.4011398301855028e-02  8.5110676305346883e-02  8.6224338215705992e-02 
 8.7352572244445814e-02  8.8495569065802526e-02  8.9653521848959375e-02  9.0826626290692755e-02 
 9.2015080648445421e-02  9.3219085773832450e-02  9.4438845146585709e-02  9.5674564908942328e-02 
 9.6926453900483295e-02  9.8194723693427757e-02  9.9479588628389543e-02  1.0078126585060038e-01 
 1.0209997534660915e-01  1.0343593998145931e-01  1.0478938553635386e-01  1.0616054074681296e-01 
 1.0754963734133061e-01  1.0895691008053748e-01  1.1038259679687595e-01  1.1182693843479437e-01 
 1.1329017909146719e-01  1.1477256605804805e-01  1.1627434986146253e-01  1.1779578430674779e-01 
 1.1933712651994627e-01  1.2089863699156052e-01  1.2248057962057679e-01  1.2408322175906457e-01 
 1.2570683425735993e-01  1.2735169150983899e-01  1.2901807150129255e-01  1.3070625585390533e-01 
 1.3241652987485095e-01  1.3414918260450956e-01  1.3590450686531638e-01  1.3768279931124927e-01 
 1.3948436047796420e-01  1.4130949483358615e-01  1.4315851083016526e-01  1.4503172095580574e-01 
 1.4692944178747730e-01  1.4885199404451724e-01  1.5079970264283285e-01  1.5277289674981295e-01 
 1.5477190983995806e-01  1.5679707975123824e-01  1.5884874874218888e-01  1.6092726354975204e-01 
 1.6303297544787757e-01  1.6516624030688806e-01  1.6732741865362205e-01  1.6951687573236393e-01 
 1.7173498156657116e-01  1.7398211102140898e-01  1.7625864386710369e-01  1.7856496484312456e-01 
 1.8090146372320581e-01  1.8326853538121929e-01  1.8566657985790902e-01  1.8809600242849914e-01 
 1.9055721367118639e-01  1.9305062953652863e-01  1.9557667141774177e-01  1.9813576622191587e-01 
 2.0072834644216414e-01  2.0335485023071365e-01  2.0601572147295635e-01  2.0871140986246539e-01 
 2.1144237097699448e-01  2.1420906635547199e-01  2.1701196357600186e-01  2.1985153633488558e-01 
 2.2272826452667779e-01  2.2564263432528983e-01  2.2859513826615416e-01  2.3158627532946399e-01 
 2.3461655102450227e-01  2.3768647747507374e-01  2.4079657350605532e-01  2.4394736473107859e-01 
 2.4713938364135971e-01  2.5037316969569184e-01  2.5364926941161542e-01  2.5696823645777883e-01 
 2.6033063174751292e-01  2.6373702353362444e-01  2.6718798750443279e-01  2.7068410688106259e-01 
 2.7422597251600966e-01  2.7781418299299626e-01  2.8144934472813338e-01  2.8513207207240615e-01 
 2.8886298741550109e-01  2.9264272129099111e-01  2.9647191248289734e-01  3.0035120813364496e-01 
 3.0428126385343207e-01  3.0826274383102931e-01  3.1229632094602916e-01  3.1638267688256427e-01 
 3.2052250224451456e-01  3.2471649667221814e-01  3.2896536896071599e-01  3.3326983717953762e-01 
 3.3763062879405703e-01  3.4204848078843619e-01  3.4652413979017704e-01  3.5105836219630343e-01 
 3.5565191430119386e-01  3.6030557242608724e-01  3.6502012305028264e-01  3.6979636294405671e-01 
 3.7463509930331956e-01  3.7953714988603232e-01  3.8450334315041107e-01  3.8953451839493730e-01 
 3.9463152590020217e-01  3.9979522707260540e-01  4.0502649458993589e-01  4.1032621254885365e-01 
 4.1569527661430822e-01  4.2113459417090560e-01  4.2664508447625887e-01  4.3222767881634522e-01 
 4.3788332066289531e-01  4.4361296583284204e-01  4.4941758264985621e-01  4.5529815210799562e-01 
 4.6125566803749490e-01  4.6729113727272570e-01  4.7340557982235359e-01  4.7960002904172261e-01 
 4.8587553180749410e-01  4.9223314869457191e-01  4.9867395415534149e-01  5.0519903670125565e-01 
 5.1180949908679585e-01  5.1850645849583687e-01  5.2529104673045923e-01  5.3216441040222251e-01 
 5.3912771112594660e-01  5.4618212571602698e-01  5.5332884638531987e-01  5.6056908094662794e-01 
 5.6790405301682456e-01  5.7533500222364775e-01  5.8286318441519958e-01  5.9048987187218849e-01 
 5.9821635352294666e-01  6.0604393516126309e-01  6.1397393966706493e-01  6.2200770722998777e-01 
 6.3014659557587116e-01  6.3839198019621668e-01  6.4674525458065124e-01  6.5520783045242492e-01 
 6.6378113800700322e-01  6.7246662615376784e-01  6.8126576276088835e-01  6.9018003490339375e-01 
 6.9921094911449289e-01  7.0836003164018224e-01  7.1762882869718414e-01  7.2701890673426206e-01 
 7.3653185269695320e-01  7.4616927429576729e-01  7.5593280027789245e-01  7.6582408070245767e-01 
 7.7584478721939698e-01  7.8599661335196214e-01  7.9628127478293165e-01  8.0670050964456597e-01 
 8.1725607881235696e-01  8.2794976620261429e-01  8.3878337907396039e-01  8.4975874833275566e-01 
 8.6087772884252711e-01  8.7214219973744522e-01  8.8355406473990172e-01  8.9511525248224355e-01 
 9.0682771683271568e-01  9.1869343722567032e-01  9.3071441899609519e-01  9.4289269371852091e-01 
 9.5523031955036086e-01  9.6772938157974531e-01  9.8039199217790629e-01  9.9322029135617307e-01 
 1.0062164471276396e+00  1.0193826558735632e+00  1.0327211427145604e+00  1.0462341618866509e+00 
 1.0599239971222387e+00  1.0737929620360618e+00  1.0878434005162001e+00  1.1020776871201983e+00 
 1.1164982274763713e+00  1.1311074586903613e+00  1.1459078497570157e+00  1.1609019019776501e+00 
 1.1760921493827776e+00  1.1914811591603642e+00  1.2070715320896890e+00  1.2228659029808842e+00 
 1.2388669411202220e+00  1.2550773507212325e+00  1.2714998713817205e+00  1.2881372785467644e+00 
 1.3049923839777766e+00  1.3220680362276869e+00  1.3393671211223694e+00  1.3568925622483450e+00 
 1.3746473214468760e+00  1.3926343993145252e+00  1.4108568357102631e+00  1.4293177102692116e+00 
 1.4480201429231103e+00  1.4669672944275911e+00  1.4861623668963542e+00  1.5056086043423329e+00 
 1.5253092932259393e+00  1.5452677630104850e+00  1.5654873867248660e+00  1.5859715815336151e+00 
 1.6067238093144089e+00  1.6277475772431349e+00  1.6490464383866148e+00  1.6706239923030695e+00 
 1.6924838856504696e+00  1.7146298128028203e+00  1.7370655164745195e+00  1.7597947883528866e+00 
 1.7828214697389677e+00  1.8061494521967218e+00  1.8297826782107076e+00  1.8537251418523710e+00 
 1.8779808894550525e+00  1.9025540202978282e+00  1.9274486872982965e+00  1.9526690977144330e+00 
 1.9782195138556242e+00  2.0041042538030109e+00  2.0303276921392528e+00  2.0568942606878418e+00 
 2.0838084492620985e+00  2.1110748064239426e+00  2.1386979402526345e+00  2.1666825191235373e+00 
 2.1950332724970854e+00  2.2237549917180774e+00  2.2528525308254217e+00  2.2823308073724822e+00 
 2.3121948032581572e+00  2.3424495655688298e+00  2.3731002074313405e+00  2.4041519088771151e+00 
 2.4356099177176036e+00  2.4674795504311744e+00  2.4997661930616073e+00  2.5324753021283533e+00 
 2.5656124055486949e+00  2.5991831035719803e+00  2.6331930697260817e+00  2.6676480517762156e+00 
 2.7025538726963605e+00  2.7379164316533307e+00  2.7737417050037565e+00  2.8100357473041009e+00 
 2.8468046923338970e+00  2.8840547541323680e+00  2.9217922280486168e+00  2.9600234918055541e+00 
 2.9987550065777486e+00  3.0379933180833816e+00  3.0777450576904890e+00  3.1180169435376772e+00 
 3.1588157816695044e+00  3.2001484671867217e+00  3.2420219854115562e+00  3.2844434130682512e+00 
 3.3274199194790541e+00  3.3709587677758237e+00  3.4150673161275558e+00  3.4597530189839039e+00 
 3.5050234283350075e+00  3.5508861949877941e+00  3.5973490698589865e+00  3.6444199052850239e+00 
 3.6921066563491260e+00  3.7404173822257225e+00  3.7893602475424704e+00  3.8389435237600971e+00 
 3.8891755905702956e+00  3.9400649373119152e+00  3.9916201644056759e+00  4.0438499848076637e+00 
 4.0967632254818378e+00  4.1503688288918106e+00  4.2046758545121534e+00  4.2596934803594371e+00 
 4.3154310045433837e+00  4.3718978468382419e+00  4.4291035502747542e+00  4.4870577827529594e+00 
 4.5457703386760802e+00  4.6052511406058114e+00  4.6655102409392484e+00  4.7265578236077683e+00 
 4.7884042057981437e+00  4.8510598396961644e+00  4.9145353142530857e+00  4.9788413569751846e+00 
 5.0439888357367364e+00  5.1099887606167096e+00  5.1768522857594945e+00  5.2445907112599812e+00 
 5.3132154850733144e+00  5.3827382049495824e+00  5.4531706203939248e+00  5.5245246346521864e+00 
 5.5968123067226081e+00  5.6700458533938196e+00  5.7442376513095139e+00  5.8194002390601192e+00 
 5.8955463193018627e+00  5.9726887609035373e+00  6.0508406011213838e+00  6.1300150478024031e+00 
 6.2102254816165319e+00  6.2914854583179904e+00  6.3738087110362489e+00  6.4572091525969544e+00 
 6.5417008778732306e+00  6.6272981661677477e+00  6.7140154836259702e+00  6.8018674856809200e+00 
 6.8908690195300535e+00  6.9810351266444215e+00  7.0723810453107312e+00  7.1649222132066503e+00 
 7.2586742700098084e+00  7.3536530600409460e+00  7.4498746349416356e+00  7.5473552563870525e+00 
 7.6461113988342353e+00  7.7461597523063048e+00  7.8475172252131244e+00  7.9502009472088560e+00 
 8.0542282720869114e+00  8.1596167807127920e+00  8.2663842839952917e+00  8.3745488258965803e+00 
 8.4841286864816983e+00  8.5951423850078612e+00  8.7076086830543620e+00  8.8215465876932502e+00 
 8.9369753547015911e+00  9.0539144918157461e+00  9.1723837620282076e+00  9.2924031869276131e+00 
 9.4139930500824267e+00  9.5371739004689200e+00  9.6619665559439891e+00  9.7883921067634265e+00 
 9.9164719191462272e+00  1.0046227638885528e+01  1.0177681195006793e+01  1.0310854803473880e+01 
 1.0445770970943585e+01  1.0582452498569326e+01  1.0720922485854604e+01  1.0861204334556808e+01 
 1.1003321752642266e+01  1.1147298758292891e+01  1.1293159683965317e+01  1.1440929180503147e+01 
 1.1590632221302998e+01  1.1742294106535079e+01  1.1895940467418956e+01  1.2051597270555320e+01 
 1.2209290822314372e+01  1.2369047773281691e+01  1.2530895122762223e+01  1.2694860223343246e+01 
 1.2860970785517008e+01  1.3029254882363878e+01  1.3199740954296752e+01  1.3372457813867566e+01 
 1.3547434650636689e+01  1.3724701036105952e+01  1.3904286928716431e+01  1.4086222678911412e+01 
 1.4270539034265703e+01  1.4457267144682046e+01  1.4646438567655537e+01  1.4838085273606900e+01 
 1.5032239651285582e+01  1.5228934513243518e+01  1.5428203101380527e+01  1.5630079092562287e+01 
 1.5834596604311789e+01  1.6041790200575292e+01  1.6251694897563702e+01  1.6464346169670410e+01 
 1.6679779955466529e+01  1.6898032663774639e+01  1.7119141179821852e+01  1.7343142871473667e+01 
 1.7570075595549117e+01  1.7799977704218694e+01  1.8032888051485955e+01  1.8268845999753935e+01 
 1.8507891426477492e+01  1.8750064730902697e+01  1.8995406840894393e+01  1.9243959219853103e+01 
 1.9495763873722460e+01  1.9750863358088274e+01  2.0009300785370570e+01  2.0271119832109669e+01 
 2.0536364746347619e+01  2.0805080355106238e+01  2.1077312071962972e+01  2.1353105904725947e+01 
 2.1632508463209241e+01  2.1915566967110284e+01  2.2202329253989930e+01  2.2492843787357195e+01 
 2.2787159664859672e+01  2.3085326626581150e+01  2.3387395063447833e+01  2.3693416025744504e+01 
 2.4003441231742144e+01  2.4317523076438462e+01  2.4635714640412754e+01  2.4958069698796663e+01 
 2.5284642730362286e+01  2.5615488926729235e+01  2.5950664201692145e+01  2.6290225200670235e+01 
 2.6634229310280514e+01  2.6982734668036318e+01  2.7335800172172497e+01  2.7693485491599620e+01 
 2.8055851075987999e+01  2.8422958165983857e+01  2.8794868803559154e+01  2.9171645842496829e+01 
 2.9553352959013228e+01  2.9940054662519536e+01  3.0331816306524040e+01  3.0728704099676996e+01 
 3.1130785116960091e+01  3.1538127311022233e+01  3.1950799523663729e+01  3.2368871497470721e+01 
 3.2792413887601825e+01  3.3221498273729061e+01  3.3656197172134931e+01  3.4096584047967958e+01 
 3.4542733327658198e+01  3.4994720411495862e+01  3.5452621686373888e+01  3.5916514538697584e+01 