  <PP_INFO>

############################################################
#    Opium Parameter File                                  #
############################################################
#-----------------------------------------------------------
#Command line   : opium Ti Ti.log ae ps nl tc ke rpt upf fhi 
 
#Opium version  : 3.7 
#Compile Host   : pzt.wm.edu 
#Compile OS     : Linux 2.6.9-42.ELsmp x86_64 
#Compile Date   : Mon Apr 27 12:45:31 EDT 2009 
#-----------------------------------------------------------
#Execution Host : oahu 
#Execution Date : Wed Jan 29 17:23:45 2014
 
#-----------------------------------------------------------
############################################################

[Atom]
Ti
8            
100   2.00  -
200   2.00  -
210   6.00  -
300   2.00  -
310   6.00  -
320   0.00  -
400   0.00  -
410   0.00  -

[Pseudo]
5 0.80 0.80 0.80  2.0  2.0
tm

[KBdesign]
p

[Relativity]
srl

[XC]
pzlda

[Configs]
6

300  2.00 -
310  6.00 -
320  2.00 -
400  2.00 -
410  0.00 -

300  2.00 -
310  6.00 -
320  2.00 -
400  1.00 -
410  0.00 -

300  2.00 -
310  6.00 -
320  2.00 -
400  0.00 -
410  0.00 -

300  2.00 -
310  6.00 -
320  1.00 -
400  2.00 -
410  0.00 -

300  2.00 -
310  6.00 -
320  1.00 -
400  1.00 -
410  0.00 -

300  2.00 -
310  6.00 -
320  0.00 -
400  2.00 -
410  0.00 -

############################################################
  </PP_INFO>



<PP_HEADER>
   0         Version Number
   Ti        Element
   NC        Norm - Conserving pseudopotential
    F      Nonlinear Core Correction
SLA  PZ   NOGX NOGC    PZ   Exchange-Correlation functional
 12          Z valence
 0          Total energy
 0.000000   0.000000     Suggested cutoff for wfc and rho
 2           Max angular momentum component
 1156           Number of points in mesh
 3  2     Number of Wavefuncitons, Number of Projectors
 Wavefunctions         nl  l   occ
                       S  0  2.000000
                       P  1  6.000000
                      3D  2  0.000001
</PP_HEADER>
<PP_MESH>
  <PP_R>
 3.5688292775180409e-05  3.6155269352441679e-05  3.6628356256276557e-05  3.7107633439497763e-05 
 3.7593181901090006e-05  3.8085083699898973e-05  3.8583421968499381e-05  3.9088280927244740e-05 
 3.9599745898500691e-05  4.0117903321064714e-05  4.0642840764774494e-05  4.1174646945307407e-05 
 4.1713411739173713e-05  4.2259226198905902e-05  4.2812182568446800e-05  4.3372374298738851e-05 
 4.3939896063517840e-05  4.4514843775312777e-05  4.5097314601655354e-05  4.5687406981501591e-05 
 4.6285220641868154e-05  4.6890856614686499e-05  4.7504417253877511e-05  4.8126006252649555e-05 
 4.8755728661022819e-05  4.9393690903583137e-05  5.0040000797467935e-05  5.0694767570587534e-05 
 5.1358101880085028e-05  5.2030115831037499e-05  5.2710922995402129e-05  5.3400638431210069e-05 
 5.4099378702011636e-05  5.4807261896575531e-05  5.5524407648846535e-05  5.6250937158163665e-05 
 5.6986973209743194e-05  5.7732640195429671e-05  5.8488064134718457e-05  5.9253372696053242e-05 
 6.0028695218402475e-05  6.0814162733117682e-05  6.1609907986078386e-05  6.2416065460126259e-05 
 6.3232771397793156e-05  6.4060163824326412e-05  6.4898382571015368e-05  6.5747569298823245e-05 
 6.6607867522328206e-05  6.7479422633977601e-05  6.8362381928659740e-05  6.9256894628596873e-05 
 7.0163111908564323e-05  7.1081186921439352e-05  7.2011274824084170e-05  7.2953532803568061e-05 
 7.3908120103732228e-05  7.4875198052102405e-05  7.5854930087153666e-05  7.6847481785931657e-05 
 7.7853020892035919e-05  7.8871717343968647e-05  7.9903743303854824e-05  8.0949273186538021e-05 
 8.2008483689056803e-05  8.3081553820507181e-05  8.4168664932295352e-05  8.5270000748786655e-05 
 8.6385747398355411e-05  8.7516093444840875e-05  8.8661229919415264e-05  8.9821350352868359e-05 
 9.0996650808314569e-05  9.2187329914328228e-05  9.3393588898512154e-05  9.4615631621505737e-05 
 9.5853664611437789e-05  9.7107897098830081e-05  9.8378541051958267e-05  9.9665811212674632e-05 
 1.0096992513270027e-04  1.0229110321039151e-04  1.0362956872798798e-04  1.0498554788934793e-04 
 1.0635926985817693e-04  1.0775096679675735e-04  1.0916087390518410e-04  1.1058922946111436e-04 
 1.1203627486003656e-04  1.1350225465606721e-04  1.1498741660328112e-04  1.1649201169758220e-04 
 1.1801629421912236e-04  1.1956052177527575e-04  1.2112495534417493e-04  1.2270985931881625e-04 
 1.2431550155174383e-04  1.2594215340031649e-04  1.2759008977256836e-04  1.2925958917366857e-04 
 1.3095093375298944e-04  1.3266440935179045e-04  1.3440030555152602e-04  1.3615891572278554e-04 
 1.3794053707487361e-04  1.3974547070603929e-04  1.4157402165436189e-04  1.4342649894930396e-04 
 1.4530321566393739e-04  1.4720448896785374e-04  1.4913064018076656e-04  1.5108199482681531e-04 
 1.5305888268957971e-04  1.5506163786781340e-04  1.5709059883190849e-04  1.5914610848109700e-04 
 1.6122851420140194e-04  1.6333816792434637e-04  1.6547542618643065e-04  1.6764065018938797e-04 
 1.6983420586122827e-04  1.7205646391808092e-04  1.7430779992684678e-04  1.7658859436866988e-04 
 1.7889923270323905e-04  1.8124010543393257e-04  1.8361160817381339e-04  1.8601414171248896e-04 
 1.8844811208384559e-04  1.9091393063466915e-04  1.9341201409416375e-04  1.9594278464437939e-04 
 1.9850666999156276e-04  2.0110410343843977e-04  2.0373552395744500e-04  2.0640137626490941e-04 
 2.0910211089621779e-04  2.1183818428195092e-04  2.1461005882502296e-04  2.1741820297882926e-04 
 2.2026309132641524e-04  2.2314520466068307e-04  2.2606503006564560e-04  2.2902306099874581e-04 
 2.3201979737425192e-04  2.3505574564774374e-04  2.3813141890170547e-04  2.4124733693223742e-04 
 2.4440402633690313e-04  2.4760202060372481e-04  2.5084186020134523e-04  2.5412409267036758e-04 
 2.5744927271589119e-04  2.6081796230125793e-04  2.6423073074302556e-04  2.6768815480718349e-04 
 2.7119081880662752e-04  2.7473931469991026e-04  2.7833424219128339e-04  2.8197620883204934e-04 
 2.8566583012323875e-04  2.8940372961963108e-04  2.9319053903513795e-04  2.9702689834956367e-04 
 3.0091345591676347e-04  3.0485086857421614e-04  3.0883980175403229e-04  3.1288092959541348e-04 
 3.1697493505858327e-04  3.2112251004020898e-04  3.2532435549033399e-04  3.2958118153084040e-04 
 3.3389370757546061e-04  3.3826266245136040e-04  3.4268878452231225e-04  3.4717282181348096e-04 
 3.5171553213784096e-04  3.5631768322424919e-04  3.6098005284719331e-04  3.6570342895823568e-04 
 3.7048860981918151e-04  3.7533640413698564e-04  3.8024763120042613e-04  3.8522312101856531e-04 
 3.9026371446102492e-04  3.9537026340009381e-04  4.0054363085469672e-04  4.0578469113624683e-04 
 4.1109432999640572e-04  4.1647344477677823e-04  4.2192294456056510e-04  4.2744375032620021e-04 
 4.3303679510299791e-04  4.3870302412883736e-04  4.4444339500991035e-04  4.5025887788255835e-04 
 4.5615045557722834e-04  4.6211912378457296e-04  4.6816589122372529e-04  4.7429177981277442e-04 
 4.8049782484147277e-04  4.8678507514620024e-04  4.9315459328722305e-04  4.9960745572826687e-04 
 5.0614475301844289e-04  5.1276758997655255e-04  5.1947708587780472e-04  5.2627437464297590e-04 
 5.3316060503004567e-04  5.4013694082833937e-04  5.4720456105521122e-04  5.5436466015530131e-04 
 5.6161844820239897e-04  5.6896715110394910e-04  5.7641201080823332e-04  5.8395428551425994e-04 
 5.9159524988440602e-04  5.9933619525983663e-04  6.0717842987874468e-04  6.1512327909744521e-04 
 6.2317208561436604e-04  6.3132620969696561e-04  6.3958702941162131e-04  6.4795594085652677e-04 
 6.5643435839763471e-04  6.6502371490768919e-04  6.7372546200838372e-04  6.8254107031568941e-04 
 6.9147202968839231e-04  7.0051984947988295e-04  7.0968605879324063e-04  7.1897220673965568e-04 
 7.2837986270023398e-04  7.3791061659122257e-04  7.4756607913271369e-04  7.5734788212085782e-04 
 7.6725767870364225e-04  7.7729714366027436e-04  7.8746797368422735e-04  7.9777188766998316e-04 
 8.0821062700352924e-04  8.1878595585665873e-04  8.2949966148511748e-04  8.4035355453065670e-04 
 8.5134946932703443e-04  8.6248926421002292e-04  8.7377482183147029e-04  8.8520804947747611e-04 
 8.9679087939072393e-04  9.0852526909703825e-04  9.2041320173620817e-04  9.3245668639714379e-04 
 9.4465775845741743e-04  9.5701847992724705e-04  9.6954093979798170e-04  9.8222725439514299e-04 
 9.9507956773609279e-04  1.0081000518923757e-03  1.0212909073568041e-03  1.0346543634153474e-03 
 1.0481926785238847e-03  1.0619081406898928e-03  1.0758030678591215e-03  1.0898798083073342e-03 
 1.1041407410371700e-03  1.1185882761802026e-03  1.1332248554042580e-03  1.1480529523260616e-03 
 1.1630750729292856e-03  1.1782937559880657e-03  1.1937115734960606e-03  1.2093311311011257e-03 
 1.2251550685456723e-03  1.2411860601127900e-03  1.2574268150782101e-03  1.2738800781681757e-03 
 1.2905486300233094e-03  1.3074352876685481e-03  1.3245429049892250e-03  1.3418743732133852e-03 
 1.3594326214004093e-03  1.3772206169360317e-03  1.3952413660338339e-03  1.4134979142433055e-03 
 1.4319933469645460e-03  1.4507307899697059e-03  1.4697134099312516e-03  1.4889444149571343e-03 
 1.5084270551329775e-03  1.5281646230713396e-03  1.5481604544681814e-03  1.5684179286665988e-03 
 1.5889404692279478e-03  1.6097315445104286e-03  1.6307946682552479e-03  1.6521334001804522e-03 
 1.6737513465825240e-03  1.6956521609458584e-03  1.7178395445602084e-03  1.7403172471462142e-03 
 1.7630890674891102e-03  1.7861588540807353e-03  1.8095305057699296e-03  1.8332079724214577e-03 
 1.8571952555835379e-03  1.8814964091641150e-03  1.9061155401159839e-03  1.9310568091308730e-03 
 1.9563244313426068e-03  1.9819226770394784e-03  2.0078558723859398e-03  2.0341284001537232e-03 
 2.0607447004625554e-03  2.0877092715305373e-03  2.1150266704343577e-03  2.1427015138794502e-03 
 2.1707384789802250e-03  2.1991423040505147e-03  2.2279177894043603e-03  2.2570697981672775e-03 
 2.2866032570981274e-03  2.3165231574217640e-03  2.3468345556725539e-03  2.3775425745489452e-03 
 2.4086524037792174e-03  2.4401693009985536e-03  2.4720985926375972e-03  2.5044456748226310e-03 
 2.5372160142875353e-03  2.5704151492976710e-03  2.6040486905858748e-03  2.6381223223006750e-03 
 2.6726418029669311e-03  2.7076129664590346e-03  2.7430417229868500e-03  2.7789340600945550e-03 
 2.8152960436725483e-03  2.8521338189826011e-03  2.8894536116964133e-03  2.9272617289477828e-03 
 2.9655645603985092e-03  3.0043685793182742e-03  3.0436803436786329e-03  3.0835064972613252e-03 
 3.1238537707810989e-03  3.1647289830232087e-03  3.2061390419958137e-03  3.2480909460974343e-03 
 3.2905917852997166e-03  3.3336487423456405e-03  3.3772690939634269e-03  3.4214602120963208e-03 
 3.4662295651484657e-03  3.5115847192470819e-03  3.5575333395211624e-03  3.6040831913968989e-03 
 3.6512421419100439e-03  3.6990181610354819e-03  3.7474193230341568e-03  3.7964538078176439e-03 
 3.8461299023305794e-03  3.8964560019511705e-03  3.9474406119100339e-03  3.9990923487275998e-03 
 4.0514199416703317e-03  4.1044322342259736e-03  4.1581381855981441e-03  4.2125468722204532e-03 
 4.2676674892904373e-03  4.3235093523235719e-03  4.3800818987276193e-03  4.4373946893975702e-03 
 4.4954574103314585e-03  4.5542798742673205e-03  4.6138720223415572e-03  4.6742439257690307e-03 
 4.7354057875451114e-03  4.7973679441700116e-03  4.8601408673956759e-03  4.9237351659955353e-03 
 4.9881615875574138e-03  5.0534310202998978e-03  5.1195544949124714e-03  5.1865431864197148e-03 
 5.2544084160699375e-03  5.3231616532484777e-03  5.3928145174160554e-03  5.4633787800724976e-03 
 5.5348663667461415e-03  5.6072893590092829e-03  5.6806599965199883e-03  5.7549906790906316e-03 
 5.8302939687834695e-03  5.9065825920336943e-03  5.9838694418002138e-03  6.0621675797445851e-03 
 6.1414902384384776e-03  6.2218508236000060e-03  6.3032629163593309e-03  6.3857402755538965e-03 
 6.4692968400537143e-03  6.5539467311170503e-03  6.6397042547769710e-03  6.7265839042590873e-03 
 6.8146003624309443e-03  6.9037685042834607e-03  6.9941033994448364e-03  7.0856203147273613e-03 
 7.1783347167075377e-03  7.2722622743399750e-03  7.3674188616054568e-03  7.4638205601937199e-03 
 7.5614836622212691e-03  7.6604246729847980e-03  7.7606603137506123e-03  7.8622075245805747e-03 
 7.9650834671950044e-03  8.0693055278730583e-03  8.1748913203910575e-03  8.2818586889992305e-03 
 8.3902257114374674e-03  8.5000107019904837e-03  8.6112322145829884e-03  8.7239090459153221e-03 
 8.8380602386401615e-03  8.9537050845807722e-03  9.0708631279913590e-03  9.1895541688601177e-03 
 9.3097982662554320e-03  9.4316157417159638e-03  9.5550271826850032e-03  9.6800534459898068e-03 
 9.8067156613664483e-03  9.9350352350307883e-03  1.0065033853296197e-02  1.0196733486238565e-02 
 1.0330156391409330e-02  1.0465325117597004e-02  1.0602262508638037e-02  1.0740991707277443e-02 
 1.0881536159079981e-02  1.1023919616392505e-02  1.1168166142358200e-02  1.1314300114983267e-02 
 1.1462346231256897e-02  1.1612329511325108e-02  1.1764275302719196e-02  1.1918209284639552e-02 
 1.2074157472295509e-02  1.2232146221301941e-02  1.2392202232133465e-02  1.2554352554636860e-02 
 1.2718624592602564e-02  1.2885046108395972e-02  1.3053645227649372e-02  1.3224450444015169e-02 
 1.3397490623981474e-02  1.3572795011750556e-02  1.3750393234181191e-02  1.3930315305795670e-02 
 1.4112591633852324e-02  1.4297253023484431e-02  1.4484330682906358e-02  1.4673856228687809e-02 
 1.4865861691097099e-02  1.5060379519514373e-02  1.5257442587915599e-02  1.5457084200428378e-02 
 1.5659338096960383e-02  1.5864238458901517e-02  1.6071819914900622e-02  1.6282117546717833e-02 
 1.6495166895153471e-02  1.6711003966054468e-02  1.6929665236399535e-02  1.7151187660463793e-02 
 1.7375608676064157e-02  1.7602966210886403e-02  1.7833298688895050e-02  1.8066645036827103e-02 
 1.8303044690770733e-02  1.8542537602830145e-02  1.8785164247877451e-02  1.9030965630393151e-02 
 1.9279983291395932e-02  1.9532259315463183e-02  1.9787836337843413e-02  2.0046757551661701e-02 
 2.0309066715219450e-02  2.0574808159389609e-02  2.0844026795108758e-02  2.1116768120967064e-02 
 2.1393078230897759e-02  2.1673003821967074e-02  2.1956592202266149e-02  2.2243891298906217e-02 
 2.2534949666118412e-02  2.2829816493459550e-02  2.3128541614125250e-02  2.3431175513371923e-02 
 2.3737769337048797e-02  2.4048374900241830e-02  2.4363044696030456e-02  2.4681831904359110e-02 
 2.5004790401024754e-02  2.5331974766781985e-02  2.5663440296567364e-02  2.5999243008844319e-02 
 2.6339439655070518e-02  2.6684087729288809e-02  2.7033245477844060e-02  2.7386971909226811e-02 
 2.7745326804045858e-02  2.8108370725131351e-02  2.8476165027770037e-02  2.8848771870074449e-02 
 2.9226254223487756e-02  2.9608675883426184e-02  2.9996101480060388e-02  3.0388596489238352e-02 
 3.0786227243550793e-02  3.1189060943541590e-02  3.1597165669064842e-02  3.2010610390790464e-02 
 3.2429464981860487e-02  3.2853800229697701e-02  3.3283687847968986e-02  3.3719200488704956e-02 
 3.4160411754578464e-02  3.4607396211343587e-02  3.5060229400437376e-02  3.5518987851746571e-02 
 3.5983749096541347e-02  3.6454591680578241e-02  3.6931595177374606e-02  3.7414840201656759e-02 
 3.7904408422983878e-02  3.8400382579550654e-02  3.8902846492169997e-02  3.9411885078439061e-02 
 3.9927584367090464e-02  4.0450031512531431e-02  4.0979314809573002e-02  4.1515523708352126e-02 
 4.2058748829448954e-02  4.2609081979201831e-02  4.3166616165222910e-02  4.3731445612116636e-02 
 4.4303665777403883e-02  4.4883373367654529e-02  4.5470666354831081e-02  4.6065643992846184e-02 
 4.6668406834336755e-02  4.7279056747657693e-02  4.7897696934097685e-02  4.8524431945320683e-02 
 4.9159367701035288e-02  4.9802611506895418e-02  5.0454272072635239e-02  5.1114459530441386e-02 
 5.1783285453565545e-02  5.2460862875180592e-02  5.3147306307483502e-02  5.3842731761048056e-02 
 5.4547256764431153e-02  5.5261000384035183e-02  5.5984083244230633e-02  5.6716627547741899e-02 
 5.7458757096299794e-02  5.8210597311564374e-02  5.8972275256321448e-02  5.9743919655956622e-02 
 6.0525660920209903e-02  6.1317631165215623e-02  6.2119964235830168e-02  6.2932795728252097e-02 
 6.3756263012938227e-02  6.4590505257819619e-02  6.5435663451821238e-02  6.6291880428689429e-02 
 6.7159300891131216e-02  6.8038071435269173e-02  6.8928340575416885e-02  6.9830258769177936e-02 
 7.0743978442873792e-02  7.1669654017303977e-02  7.2607441933843817e-02  7.3557500680883195e-02 
 7.4519990820611615e-02  7.5495075016153573e-02  7.6482918059058769e-02  7.7483686897152695e-02 
 7.8497550662750923e-02  7.9524680701242911e-02  8.0565250600049834e-02  8.1619436217961278e-02 
 8.2687415714855689e-02  8.3769369581809972e-02  8.4865480671602864e-02  8.5975934229617218e-02 
 8.7100917925147417e-02  8.8240621883115586e-02  8.9395238716203224e-02  9.0564963557403205e-02 
 9.1749994092997778e-02  9.2950530595967903e-02  9.4166775959840035e-02  9.5398935732975462e-02 
 9.6647218153308415e-02  9.7911834183538993e-02  9.9192997546786218e-02  1.0049092476270777e-01 
 1.0180583518409235e-01  1.0313795103393077e-01  1.0448749744297224e-01  1.0585470248777194e-01 
 1.0723979722923647e-01  1.0864301575167383e-01  1.1006459520235415e-01  1.1150477583158803e-01 
 1.1296380103332980e-01  1.1444191738631077e-01  1.1593937469571290e-01  1.1745642603538550e-01 
 1.1899332779061572e-01  1.2055033970145823e-01  1.2212772490663172e-01  1.2372574998799024e-01 
 1.2534468501557600e-01  1.2698480359326189e-01  1.2864638290499111e-01  1.3032970376162212e-01 
 1.3203505064838614e-01  1.3376271177296595e-01  1.3551297911420360e-01  1.3728614847144552e-01 
 1.3908251951453343e-01  1.4090239583444913e-01  1.4274608499462246e-01  1.4461389858290918e-01 
 1.4650615226425137e-01  1.4842316583402515e-01  1.5036526327208630e-01  1.5233277279752430e-01 
 1.5432602692413183e-01  1.5634536251660044e-01  1.5839112084745138e-01  1.6046364765471177e-01 
 1.6256329320034479e-01  1.6469041232944506e-01  1.6684536453020815e-01  1.6902851399468491e-01 
 1.7124022968033098e-01  1.7348088537236137e-01  1.7575085974692092e-01  1.7805053643508179e-01 
 1.8038030408767802e-01  1.8274055644098730e-01  1.8513169238327531e-01  1.8755411602220742e-01 
 1.9000823675314427e-01  1.9249446932833036e-01  1.9501323392698844e-01  1.9756495622633044e-01 
 2.0015006747349845e-01  2.0276900455844604e-01  2.0542221008777384e-01  2.0811013245953119e-01 
 2.1083322593899645e-01  2.1359195073544884e-01  2.1638677307994508e-01  2.1921816530411323e-01 
 2.2208660591997828e-01  2.2499257970083136e-01  2.2793657776315843e-01  2.3091909764963814e-01 
 2.3394064341323045e-01  2.3700172570236094e-01  2.4010286184722221e-01  2.4324457594720367e-01 
 2.4642739895946580e-01  2.4965186878867315e-01  2.5291853037790146e-01  2.5622793580073416e-01 
 2.5958064435456440e-01  2.6297722265511764e-01  2.6641824473221082e-01  2.6990429212676498e-01 
 2.7343595398908688e-01  2.7701382717843692e-01  2.8063851636389975e-01  2.8431063412657498e-01 
 2.8803080106310497e-01  2.9179964589055524e-01  2.9561780555267242e-01  2.9948592532752694e-01 
 3.0340465893656737e-01  3.0737466865510038e-01  3.1139662542421770e-01  3.1547120896418568e-01 
 3.1959910788932067e-01  3.2378101982436580e-01  3.2801765152239126e-01  3.3230971898423783e-01 
 3.3665794757952200e-01  3.4106307216922560e-01  3.4552583722988889e-01  3.5004699697942904e-01 
 3.5462731550460425e-01  3.5926756689014722e-01  3.6396853534958679e-01  3.6873101535778013e-01 
 3.7355581178518432e-01  3.7844374003387921e-01  3.8339562617537265e-01  3.8841230709020830e-01 
 3.9349463060940110e-01  3.9864345565772225e-01  4.0385965239885935e-01  4.0914410238247712e-01 
 4.1449769869320002e-01  4.1992134610154658e-01  4.2541596121683778e-01  4.3098247264210576e-01 
 4.3662182113103026e-01  4.4233495974692810e-01  4.4812285402382307e-01  4.5398648212962384e-01 
 4.5992683503143716e-01  4.6594491666304028e-01  4.7204174409455335e-01  4.7821834770432370e-01 
 4.8447577135306175e-01  4.9081507256025775e-01  4.9723732268290372e-01  5.0374360709655619e-01 
 5.1033502537876629e-01  5.1701269149491236e-01  5.2377773398646110e-01  5.3063129616169524e-01 
 5.3757453628893470e-01  5.4460862779228636e-01  5.5173475944995587e-01  5.5895413559515472e-01 
 5.6626797631963399e-01  5.7367751767988406e-01  5.8118401190603075e-01  5.8878872761346290e-01 
 5.9649295001723579e-01  6.0429798114927258e-01  6.1220514007841109e-01  6.2021576313333060e-01 
 6.2833120412839283e-01  6.3655283459244205e-01  6.4488204400059468e-01  6.5332024000906497e-01 
 6.6186884869306217e-01  6.7052931478780042e-01  6.7930310193266241e-01  6.8819169291855808e-01 
 6.9719658993851996e-01  7.0631931484157673e-01  7.1556140938994994e-01  7.2492443551961550e-01 
 7.3440997560427546e-01  7.4401963272277805e-01  7.5375503093004925e-01  7.6361781553155772e-01 
 7.7360965336137544e-01  7.8373223306387696e-01  7.9398726537912456e-01  8.0437648343198798e-01 
 8.1490164302504520e-01  8.2556452293531823e-01  8.3636692521489098e-01  8.4731067549545924e-01 
 8.5839762329686742e-01  8.6962964233968232e-01  8.8100863086185521e-01  8.9253651193952954e-01 
 9.0421523381204494e-01  9.1604677021119452e-01  9.2803312069479105e-01  9.4017631098459198e-01 
 9.5247839330866002e-01  9.6494144674818816e-01  9.7756757758887003e-01  9.9035891967687029e-01 
 1.0033176347794461e+00  1.0164459129502925e+00  1.0297459728996670e+00  1.0432200623693566e+00 
 1.0568704585125515e+00  1.0706994682786888e+00  1.0847094288033334e+00  1.0989027078031592e+00 
 1.1132817039760987e+00  1.1278488474067281e+00  1.1426065999769588e+00  1.1575574557820998e+00 
 1.1727039415523686e+00  1.1880486170799067e+00  1.2035940756514016e+00  1.2193429444863522e+00 
 1.2352978851810752e+00  1.2514615941585221e+00  1.2678368031239815e+00  1.2844262795267432e+00 
 1.3012328270278037e+00  1.3182592859736919e+00  1.3355085338764943e+00  1.3529834859001613e+00 
 1.3706870953531771e+00  1.3886223541876752e+00  1.4067922935050865e+00  1.4251999840684026e+00 
 1.4438485368211393e+00  1.4627411034130986e+00  1.4818808767330021e+00  1.5012710914480911e+00 
 1.5209150245508050e+00  1.5408159959125933e+00  1.5609773688449815e+00  1.5814025506679821e+00 
 1.6020949932859361e+00  1.6230581937708968e+00  1.6442956949536403e+00  1.6658110860224140e+00 
 1.6876080031295162e+00  1.7096901300058180e+00  1.7320611985833194e+00  1.7547249896258537e+00 
 1.7776853333680505e+00  1.8009461101626494e+00  1.8245112511362918e+00  1.8483847388538892e+00 
 1.8725706079916913e+00  1.8970729460191398e+00  1.9218958938896824e+00  1.9470436467405898e+00 
 1.9725204546019497e+00  1.9983306231149263e+00  2.0244785142594299e+00  2.0509685470912982e+00 
 2.0778051984891279e+00  2.1049930039108800e+00  2.1325365581603797e+00  2.1604405161638520e+00 
 2.1887095937566134e+00  2.2173485684800607e+00  2.2463622803890839e+00  2.2757556328700534e+00 
 2.3055335934694967e+00  2.3357011947336286e+00  2.3662635350588705e+00  2.3972257795534690e+00 
 2.4285931609104403e+00  2.4603709802918932e+00  2.4925646082249355e+00  2.5251794855093133e+00 
 2.5582211241369133e+00  2.5916951082233060e+00  2.6256070949514747e+00  2.6599628155278885e+00 
 2.6947680761510950e+00  2.7300287589929804e+00  2.7657508231928674e+00  2.8019403058646288e+00 
 2.8386033231169701e+00  2.8757460710870686e+00  2.9133748269877358e+00  2.9514959501682769e+00 
 2.9901158831892474e+00  3.0292411529112369e+00  3.0688783715979553e+00  3.1090342380337019e+00 
 3.1497155386554780e+00  3.1909291486999138e+00  3.2326820333652009e+00  3.2749812489882220e+00 
 3.3178339442370945e+00  3.3612473613193092e+00  3.4052288372056809e+00  3.4497858048703138e+00 
 3.4949257945467944e+00  3.5406564350008143e+00  3.5869854548194549e+00  3.6339206837173310e+00 
 3.6814700538598397e+00  3.7296416012037041e+00  3.7784434668550868e+00  3.8278838984454238e+00 
 3.8779712515253304e+00  3.9287139909766919e+00  3.9801206924432480e+00  4.0322000437799002e+00 
 4.0849608465209757e+00  4.1384120173677168e+00  4.1925625896952132e+00  4.2474217150790716e+00 
 4.3029986648420540e+00  4.3593028316209477e+00  4.4163437309539484e+00  4.4741310028888046e+00 
 4.5326744136120141e+00  4.5919838570993283e+00  4.6520693567878570e+00  4.7129410672700578e+00 
 4.7746092760098930e+00  4.8370844050813950e+00  4.9003770129300861e+00  4.9644977961573336e+00 
 5.0294575913281170e+00  5.0952673768024308e+00  5.1619382745906526e+00  5.2294815522331941e+00 
 5.2979086247047329e+00  5.3672310563433818e+00  5.4374605628050832e+00  5.5086090130435812e+00 
 5.5806884313163039e+00  5.6537109992164991e+00  5.7276890577319399e+00  5.8026351093305930e+00 
 5.8785618200735543e+00  5.9554820217556541e+00  6.0334087140740653e+00  6.1123550668252413e+00 
 6.1923344221307071e+00  6.2733602966918660e+00  6.3554463840743729e+00  6.4386065570223625e+00 
 6.5228548698029973e+00  6.6082055605816530e+00  6.6946730538282173e+00  6.7822719627548489e+00 
 6.8710170917856459e+00  6.9609234390586430e+00  7.0520061989605125e+00  7.1442807646944608e+00 
 7.2377627308817232e+00  7.3324678961970813e+00  7.4284122660388769e+00  7.5256120552339745e+00 
 7.6240836907781047e+00  7.7238438146120210e+00  7.8249092864340986e+00  7.9272971865496284e+00 
 8.0310248187574178e+00  8.1361097132741929e+00  8.2425696296972397e+00  8.3504225600058177e+00 
 8.4596867316018507e+00  8.5703806103903979e+00  8.6825229039004359e+00  8.7961325644464772e+00 
 8.9112287923315581e+00  9.0278310390921259e+00  9.1459590107854147e+00  9.2656326713197927e+00 
 9.3868722458287248e+00  9.5096982240888668e+00  9.6341313639828972e+00  9.7601926950075892e+00 
 9.8879035218279423e+00  1.0017285427877649e+01  1.0148360279006777e+01  1.0281150227177134e+01 
 1.0415677714206019e+01  1.0551965475558923e+01  1.0690036544191896e+01  1.0829914254444159e+01 
 1.0971622245981665e+01  1.1115184467792268e+01  1.1260625182233138e+01  1.1407968969131183e+01 
 1.1557240729937085e+01  1.1708465691933695e+01  1.1861669412499522e+01  1.2016877783427981e+01 
 1.2174117035303192e+01  1.2333413741932929e+01  1.2494794824839770e+01  1.2658287557810825e+01 
 1.2823919571507099e+01  1.2991718858133133e+01  1.3161713776167732e+01  1.3333933055156660e+01 
 1.3508405800567958e+01  1.3685161498710864e+01  1.3864230021719061e+01  1.4045641632599137e+01 
 1.4229426990345109e+01  1.4415617155119861e+01  1.4604243593504394e+01  1.4795338183815742e+01 
 1.4988933221494490e+01  1.5185061424562781e+01  1.5383755939153763e+01  1.5585050345113263e+01 
 1.5788978661675015e+01  1.5995575353209892e+01  1.6204875335050474e+01  1.6416913979391850e+01 
 1.6631727121269588e+01  1.6849351064615941e+01  1.7069822588395297e+01  1.7293178952819918e+01 
 1.7519457905647013e+01  1.7748697688558163e+01  1.7980937043622291e+01  1.8216215219843168e+01 
 1.8454571979792551e+01  1.8696047606330186e+01  1.8940682909411695e+01  1.9188519232985545e+01 
 1.9439598461980342e+01  1.9693963029383301e+01  1.9951655923411767e+01  2.0212720694778156e+01 
 2.0477201464050196e+01  2.0745142929107384e+01  2.1016590372695035e+01  2.1291589670077190e+01 
 2.1570187296789626e+01  2.1852430336494361e+01  2.2138366488936857e+01  2.2428044078007435e+01 
 2.2721512059908115e+01  2.3018820031426316e+01  2.3320018238316838e+01  2.3625157583793552e+01 
 2.3934289637132075e+01  2.4247466642385238e+01  2.4564741527212245e+01  2.4886167911823815e+01 
 2.5211800118043968e+01  2.5541693178490586e+01  2.5875902845876070e+01  2.6214485602429672e+01 
 2.6557498669443081e+01  2.6905000016941049e+01  2.7257048373478391e+01  2.7613703236065252e+01 
 2.7975024880222293e+01  2.8341074370167362e+01  2.8711913569135483e+01  2.9087605149833930e+01 
 2.9468212605034008e+01  2.9853800258301529e+01  3.0244433274867632e+01  3.0640177672641926e+01 
 3.1041100333369432e+01  3.1447269013934093e+01  3.1858752357809657e+01  3.2275619906660602e+01 
 3.2697942112094871e+01  3.3125790347570337e+01  3.3559236920457145e+01  3.3998355084257732e+01 
 3.4443219050986940e+01  3.4893904003713949e+01  3.5350486109268459e+01  3.5813042531113005e+01 
 3.6281651442383819e+01  3.6756392039102238e+01  3.7237344553559033e+01  3.7724590267873857e+01 
 3.8218211527732130e+01  3.8718291756301703e+01  3.9224915468331297e+01  3.9738168284434138e+01 
 4.0258136945557730e+01  4.0784909327643376e+01  4.1318574456477428e+01  4.1859222522736836e+01 
 4.2406944897231590e+01  4.2961834146346582e+01  4.3523984047685651e+01  4.4093489605920048e+01 
 4.4670447068844652e+01  4.5254953943643834e+01  4.5847109013370691e+01  4.6447012353641348e+01 
 4.7054765349548163e+01  4.7670470712793936e+01  4.8294232499050509e+01  4.8926156125544452e+01 
 4.9566348388872512e+01  5.0214917483050982e+01  5.0871973017800471e+01  5.1537626037070169e+01 
 5.2211989037804685e+01  5.2895175988956154e+01  5.3587302350745411e+01  5.4288485094174895e+01 
 5.4998842720797150e+01  5.5718495282741770e+01  5.6447564403004613e+01  5.7186173296002195e+01 
 5.7934446788395434e+01  5.8692511340185504e+01  5.9460495066085926e+01  6.0238527757174232e+01 
 6.1026740902827036e+01  6.1825267712942079e+01  6.2634243140450614e+01  6.3453803904125429e+01 
 6.4284088511686249e+01  6.5125237283207881e+01  6.5977392374834764e+01  6.6840697802805551e+01 
 6.7715299467792335e+01  6.8601345179558152e+01  6.9498984681937131e+01  7.0408369678141696e+01 
 7.1329653856400583e+01  7.2262992915932671e+01  7.3208544593260470e+01  7.4166468688867951e+01 
 7.5136927094207223e+01  7.6120083819058564e+01  7.7116105019248494e+01  7.8125159024730593e+01 
 7.9147416368033191e+01  8.0183049813080501e+01  8.1232234384389614e+01  8.2295147396650265e+01 
 8.3371968484691379e+01  8.4462879633839748e+01  8.5568065210676039e+01  8.6687711994193222e+01 
 8.7822009207362598e+01  8.8971148549112868e+01  9.0135324226727846e+01  9.1314732988667984e+01 
 9.2509574157821078e+01  9.3720049665188583e+01  9.4946364084012302e+01  9.6188724664347731e+01 
 9.7447341368089923e+01  9.8722426904457592e+01  1.0001419676594088e+02  1.0132286926472104e+02 
 1.0264866556956521e+02  1.0399180974320433e+02  1.0535252878020069e+02  1.0673105264531009e+02 
 1.0812761431234675e+02  1.0954244980355639e+02  1.1097579822950448e+02  1.1242790182948647e+02 