  <PP_INFO>

############################################################
#    Opium Parameter File                                  #
############################################################
#-----------------------------------------------------------
#Command line   : opium Pd Pd.log ae ps nl tc2 ke upf rpt qmcpack 
 
#Opium version  : 4.1 
#Compile Host   : andes-login7.olcf.ornl.gov 
#Compile OS     : Linux 4.18.0-348.12.2.el8_5.x86_64 x86_64 
#Compile Date   : Fri Jul  8 17:09:33 EDT 2022 
#-----------------------------------------------------------
#Execution Host : andes-login7.olcf.ornl.gov 
#Execution Date : Fri Jul  8 20:56:04 2022
 
#-----------------------------------------------------------
############################################################
[Atom]
Pd
10
100   2.00  -
200   2.00  -
210   6.00  -
300   2.00  -
310   6.00  -
320   10.0  -
400   2.00  -
410   6.00  -
420   9.00  -
500   0.00  -

[Pseudo]
4 -1 -1 -1 -1
g

[Gaussinfo]
18 4 2
3 3 3 4  2 4
2 12.45164671  222.00487020
2  9.65695771    4.62435397
2  6.30150789   55.83858614
2 12.37601363  166.64496032
2  9.85017924   28.72134712
2  5.70618703   42.68116678
2  9.19534433   57.97681111
2  7.92346716   53.57659163
2  3.35869220    4.67492064
1 15.99766359   18.00000000
3 15.96400873  287.95794458
2 16.12887798 -176.38255161
2  9.59253945  -44.25362272
2 17.77538874    -4.39260974
2  6.01008650     4.16768410
2  8.31041180   -28.61755483
2  8.11317751    28.94437632
2  3.31349772    -1.90187823
2  2.15251223     0.86755808


[KBdesign]
s

[Relativity]
frl

[XC]
pbe

[Configs]
8

400   2.00  -
410   6.00  -
420   9.00  -
500   1.00  -

400   2.00  -
410   6.00  -
420   9.00  -
500   0.00  -

400   2.00  -
410   6.00  -
420   8.00  -
500   1.00  -

400   2.00  -
410   6.00  -
420   8.00  -
500   0.00  -

400   2.00  -
410   6.00  -
420   7.00  -
500   1.00  -

400   2.00  -
410   6.00  -
420   7.00  -
500   0.00  -

400   2.00  -
410   6.00  -
420   6.00  -
500   0.00  -

400   2.00  -
410   6.00  -
420   5.00  -
500   0.00  -

############################################################
  </PP_INFO>



<PP_HEADER>
   0         Version Number
   Pd        Element
   NC        Norm - Conserving pseudopotential
    F      Nonlinear Core Correction
SLA  PW   PBE  PBE     PBE  Exchange-Correlation functional
 18          Z valence
 0          Total energy
 0.000000   0.000000     Suggested cutoff for wfc and rho
 2           Max angular momentum component
 1174           Number of points in mesh
 5  4     Number of Wavefuncitons, Number of Projectors
 Wavefunctions         nl  l   occ
                       S  0  2.000000
                       P  1  2.000000
                       P  1  4.000000
                       D  2  3.600000
                       D  2  5.400000
</PP_HEADER>
<PP_MESH>
  <PP_R>
 2.7909200099982401e-05  2.8274388281409036e-05  2.8644354901751015e-05  2.9019162486247728e-05 
 2.9398874378273025e-05  2.9783554750040439e-05  3.0173268613448332e-05  3.0568081831067187e-05 
 3.0968061127270494e-05  3.1373274099511290e-05  3.1783789229746325e-05  3.2199675896009688e-05 
 3.2621004384137813e-05  3.3047845899648007e-05  3.3480272579772343e-05  3.3918357505648914e-05 
 3.4362174714672912e-05  3.4811799213008988e-05  3.5267306988267516e-05  3.5728775022346668e-05 
 3.6196281304442533e-05  3.6669904844229502e-05  3.7149725685213065e-05  3.7635824918257402e-05 
 3.8128284695289795e-05  3.8627188243184700e-05  3.9132619877829145e-05  3.9644665018372369e-05 
 4.0163410201661831e-05  4.0688943096868179e-05  4.1221352520301521e-05  4.1760728450421592e-05 
 4.2307162043044402e-05  4.2860745646747593e-05  4.3421572818477794e-05  4.3989738339361867e-05 
 4.4565338230725123e-05  4.5148469770319184e-05  4.5739231508762163e-05  4.6337723286193918e-05 
 4.6944046249149296e-05  4.7558302867652203e-05  4.8180596952533056e-05  4.8811033672973376e-05 
 4.9449719574279401e-05  5.0096762595888601e-05  5.0752272089611649e-05  5.1416358838113158e-05 
 5.2089135073634212e-05  5.2770714496959947e-05  5.3461212296635013e-05  5.4160745168431080e-05 
 5.4869431335068411e-05  5.5587390566195943e-05  5.6314744198632518e-05  5.7051615156873201e-05 
 5.7798127973863749e-05  5.8554408812047036e-05  5.9320585484684702e-05  6.0096787477458074e-05 
 6.0883145970351237e-05  6.1679793859821186e-05  6.2486865781257299e-05  6.3304498131735244e-05 
 6.4132829093068277e-05  6.4971998655160383e-05  6.5822148639664847e-05  6.6683422723952561e-05 
 6.7555966465393554e-05  6.8439927325956949e-05  6.9335454697132064e-05  7.0242699925176082e-05 
 7.1161816336691880e-05  7.2092959264540590e-05  7.3036286074093217e-05  7.3991956189825808e-05 
 7.4960131122262476e-05  7.5940974495271175e-05  7.6934652073716507e-05  7.7941331791474142e-05 
 7.8961183779812445e-05  7.9994380396144807e-05  8.1041096253158464e-05  8.2101508248324563e-05 
 8.3175795593794162e-05  8.4264139846685628e-05  8.5366724939767906e-05  8.6483737212546074e-05 
 8.7615365442752821e-05  8.8761800878252442e-05  8.9923237269362157e-05  9.1099870901596407e-05 
 9.2291900628839520e-05  9.3499527906952561e-05  9.4722956827819794e-05  9.5962394153840751e-05 
 9.7218049352873544e-05  9.8490134633635282e-05  9.9778864981566129e-05  1.0108445819516221e-04 
 1.0240713492278408e-04  1.0374711869994677e-04  1.0510463598709793e-04  1.0647991620789023e-04 
 1.0787319178795405e-04  1.0928469819417868e-04  1.1071467397450627e-04  1.1216336079824718e-04 
 1.1363100349692265e-04  1.1511785010564189e-04  1.1662415190502060e-04  1.1815016346364803e-04 
 1.1969614268110960e-04  1.2126235083157272e-04  1.2284905260794257e-04  1.2445651616659571e-04 
 1.2608501317269957e-04  1.2773481884612411e-04  1.2940621200795488e-04  1.3109947512761428e-04 
 1.3281489437059969e-04  1.3455275964684618e-04  1.3631336465972141e-04  1.3809700695566318e-04 
 1.3990398797446464e-04  1.4173461310021884e-04  1.4358919171292907e-04  1.4546803724079492e-04 
 1.4737146721318249e-04  1.4929980331428744e-04  1.5125337143750045e-04  1.5323250174048409e-04 
 1.5523752870097017e-04  1.5726879117328692e-04  1.5932663244562690e-04  1.6141140029806296e-04 
 1.6352344706132418e-04  1.6566312967634036e-04  1.6783080975456610e-04  1.7002685363909411e-04 
 1.7225163246656735e-04  1.7450552222990291e-04  1.7678890384183543e-04  1.7910216319929188e-04 
 1.8144569124860948e-04  1.8381988405160641e-04  1.8622514285251716e-04  1.8866187414580385e-04 
 1.9113048974485469e-04  1.9363140685158144e-04  1.9616504812692778e-04  1.9873184176229919e-04 
 2.0133222155192945e-04  2.0396662696619216e-04  2.0663550322587239e-04  2.0933930137741053e-04 
 2.1207847836912904e-04  2.1485349712845923e-04  2.1766482664017621e-04  2.2051294202565881e-04 
 2.2339832462318579e-04  2.2632146206928372e-04  2.2928284838113835e-04  2.3228298404008479e-04 
 2.3532237607618993e-04  2.3840153815394199e-04  2.4152099065906076e-04  2.4468126078644426e-04 
 2.4788288262926573e-04  2.5112639726923699e-04  2.5441235286805170e-04  2.5774130476002714e-04 
 2.6111381554595617e-04  2.6453045518818886e-04  2.6799180110695625e-04  2.7149843827795712e-04 
 2.7505095933121949e-04  2.7864996465125672e-04  2.8229606247853393e-04  2.8598986901226189e-04 
 2.8973200851453647e-04  2.9352311341584032e-04  2.9736382442192475e-04  3.0125479062209116e-04 
 3.0519666959888831e-04  3.0919012753924521e-04  3.1323583934705869e-04  3.1733448875725370e-04 
 3.2148676845133518e-04  3.2569338017445453e-04  3.2995503485400509e-04  3.3427245271977127e-04 
 3.3864636342564750e-04  3.4307750617295377e-04  3.4756662983536095e-04  3.5211449308545251e-04 
 3.5672186452294206e-04  3.6138952280456856e-04  3.6611825677569101e-04  3.7090886560360543e-04 
 3.7576215891260586e-04  3.8067895692081284e-04  3.8566009057879215e-04  3.9070640170998754e-04 
 3.9581874315299101e-04  4.0099797890567462e-04  4.0624498427120685e-04  4.1156064600598330e-04 
 4.1694586246948895e-04  4.2240154377612356e-04  4.2792861194901273e-04  4.3352800107583281e-04 
 4.3920065746667322e-04  4.4494753981396551e-04  4.5076961935450481e-04  4.5666788003359012e-04 
 4.6264331867131486e-04  4.6869694513103089e-04  4.7482978249001833e-04  4.8104286721238723e-04 
 4.8733724932424361e-04  4.9371399259114546e-04  5.0017417469788239e-04  5.0671888743060629e-04 
 5.1334923686134593e-04  5.2006634353493576e-04  5.2687134265839129e-04  5.3376538429276109e-04 
 5.4074963354748941e-04  5.4782527077732357e-04  5.5499349178179632e-04  5.6225550800731851e-04 
 5.6961254675191658e-04  5.7706585137264847e-04  5.8461668149573478e-04  5.9226631322943830e-04 
 6.0001603937972884e-04  6.0786716966877046e-04  6.1582103095626892e-04  6.2387896746371257e-04 
 6.3204234100154989e-04  6.4031253119933862e-04  6.4869093573890568e-04  6.5717897059055965e-04 
 6.6577807025239299e-04  6.7448968799271544e-04  6.8331529609565915e-04  6.9225638610999948e-04 
 7.0131446910122962e-04  7.1049107590693411e-04  7.1978775739550466e-04  7.2920608472823933e-04 
 7.3874764962487407e-04  7.4841406463258616e-04  7.5820696339851947e-04  7.6812800094587259e-04 
 7.7817885395360469e-04  7.8836122103979585e-04  7.9867682304871871e-04  8.0912740334166528e-04 
 8.1971472809157762e-04  8.3044058658153779e-04  8.4130679150715929e-04  8.5231517928293743e-04 
 8.6346761035260649e-04  8.7476596950356175e-04  8.8621216618539058e-04  8.9780813483257549e-04 
 9.0955583519141770e-04  9.2145725265123770e-04  9.3351439857991320e-04  9.4572931066380336e-04 
 9.5810405325212318e-04  9.7064071770582277e-04  9.8334142275103317e-04  9.9620831483713656e-04 
 1.0092435684995193e-03  1.0224493867270763e-03  1.0358280013345181e-03  1.0493816733395565e-03 
 1.0631126933450189e-03  1.0770233819259686e-03  1.0911160900218828e-03  1.1053931993339726e-03 
 1.1198571227276927e-03  1.1345103046405218e-03  1.1493552214950802e-03  1.1643943821176472e-03 
 1.1796303281621635e-03  1.1950656345397733e-03  1.2107029098539931e-03  1.2265447968415673e-03 
 1.2425939728191032e-03  1.2588531501355393e-03  1.2753250766305408e-03  1.2920125360988903e-03 
 1.3089183487609546e-03  1.3260453717393122e-03  1.3433964995416096e-03  1.3609746645497440e-03 
 1.3787828375154379e-03  1.3968240280623086e-03  1.4151012851944982e-03  1.4336176978119637e-03 
 1.4523763952325086e-03  1.4713805477206434e-03  1.4906333670233712e-03  1.5101381069129779e-03 
 1.5298980637369272e-03  1.5499165769749536e-03  1.5701970298034416e-03  1.5907428496671858e-03 
 1.6115575088586455e-03  1.6326445251047654e-03  1.6540074621614795e-03  1.6756499304159968e-03 
 1.6975755874969636e-03  1.7197881388926110e-03  1.7422913385769937e-03  1.7650889896444197e-03 
 1.7881849449521764e-03  1.8115831077716829e-03  1.8352874324481460e-03  1.8593019250688547e-03 
 1.8836306441402182e-03  1.9082777012736647e-03  1.9332472618805118e-03  1.9585435458759322e-03 
 1.9841708283921309e-03  2.0101334405008445e-03  2.0364357699453146e-03  2.0630822618818196e-03 
 2.0900774196309182e-03  2.1174258054385206e-03  2.1451320412469205e-03  2.1732008094759126e-03 
 2.2016368538141347e-03  2.2304449800207623e-03  2.2596300567376856e-03  2.2891970163123362e-03 
 2.3191508556312536e-03  2.3494966369645765e-03  2.3802394888215754e-03  2.4113846068173853e-03 
 2.4429372545510765e-03  2.4749027644952130e-03  2.5072865388970599e-03  2.5400940506915626e-03 
 2.5733308444263019e-03  2.6070025371985254e-03  2.6411148196044537e-03  2.6756734567010042e-03 
 2.7106842889800986e-03  2.7461532333557218e-03  2.7820862841638917e-03  2.8184895141757232e-03 
 2.8553690756237247e-03  2.8927312012415620e-03  2.9305822053173891e-03  2.9689284847609835e-03 
 3.0077765201848403e-03  3.0471328769994068e-03  3.0870042065226570e-03  3.1273972471041788e-03 
 3.1683188252639720e-03  3.2097758568461368e-03  3.2517753481876859e-03  3.2943243973026191e-03 
 3.3374301950815062e-03  3.3811000265067700e-03  3.4253412718838580e-03  3.4701614080885376e-03 
 3.5155680098305046e-03  3.5615687509335278e-03  3.6081714056323340e-03  3.6553838498864883e-03 
 3.7032140627114418e-03  3.7516701275270002e-03  3.8007602335234491e-03  3.8504926770455404e-03 
 3.9008758629945971e-03  3.9519183062489624e-03  4.0036286331030348e-03  4.0560155827251212e-03 
 4.1090880086343982e-03  4.1628548801971614e-03  4.2173252841426747e-03  4.2725084260988510e-03 
 4.3284136321480211e-03  4.3850503504030674e-03  4.4424281526041758e-03  4.5005567357364875e-03 
 4.5594459236688936e-03  4.6191056688143235e-03  4.6795460538117013e-03  4.7407772932299454e-03 
 4.8028097352942542e-03  4.8656538636349788e-03  4.9293202990593850e-03  4.9938198013465915e-03 
 5.0591632710660040e-03  5.1253617514195196e-03  5.1924264301078833e-03  5.2603686412214115e-03 
 5.3291998671554930e-03  5.3989317405511352e-03  5.4695760462609095e-03  5.5411447233406222e-03 
 5.6136498670670398e-03  5.6871037309820273e-03  5.7615187289634020e-03  5.8369074373229432e-03 
 5.9132825969317980e-03  5.9906571153737175e-03  6.0690440691264788e-03  6.1484567057718351e-03 
 6.2289084462343880e-03  6.3104128870497597e-03  6.3929838026624405e-03  6.4766351477536857e-03 
 6.5613810595999203e-03  6.6472358604619496e-03  6.7342140600054603e-03  6.8223303577531922e-03 
 6.9115996455691910e-03  7.0020370101755679e-03  7.0936577357021899e-03  7.1864773062697415e-03 
 7.2805114086065600e-03  7.3757759346997536e-03  7.4722869844809706e-03  7.5700608685473321e-03 
 7.6691141109179548e-03  7.7694634518265561e-03  7.8711258505505914e-03  7.9741184882774103e-03 
 8.0784587710079278e-03  8.1841643324982519e-03  8.2912530372398728e-03  8.3997429834787706e-03 
 8.5096525062740760e-03  8.6210001805967391e-03  8.7338048244687376e-03  8.8480855021433723e-03 
 8.9638615273271681e-03  9.0811524664439463e-03  9.1999781419415689e-03  9.3203586356420173e-03 
 9.4423142921352433e-03  9.5658657222174627e-03  9.6910338063744220e-03  9.8178396983102569e-03 
 9.9463048285225140e-03  1.0076450907923959e-02  1.0208299931511781e-02  1.0341874182084761e-02 
 1.0477196234009173e-02  1.0614288957033875e-02  1.0753175520155350e-02  1.0893879395533329e-02 
 1.1036424362457638e-02  1.1180834511366963e-02  1.1327134247920175e-02  1.1475348297120968e-02 
 1.1625501707496409e-02  1.1777619855330232e-02  1.1931728448951484e-02  1.2087853533079273e-02 
 1.2246021493224414e-02  1.2406259060148627e-02  1.2568593314382100e-02  1.2733051690800173e-02 
 1.2899661983259899e-02  1.3068452349297224e-02  1.3239451314885764e-02  1.3412687779257694e-02 
 1.3588191019787811e-02  1.3765990696941486e-02  1.3946116859287330e-02  1.4128599948575501e-02 
 1.4313470804882416e-02  1.4500760671822816e-02  1.4690501201829952e-02  1.4882724461505013e-02 
 1.5077462937036391e-02  1.5274749539689950e-02  1.5474617611371099e-02  1.5677100930259653e-02 
 1.5882233716518441e-02  1.6090050638076569e-02  1.6300586816488428e-02  1.6513877832869232e-02 
 1.6729959733908416e-02  1.6948869037961556e-02  1.7170642741222056e-02  1.7395318323973615e-02 
 1.7622933756924468e-02  1.7853527507624523e-02  1.8087138546966496e-02  1.8323806355772056e-02 
 1.8563570931464161e-02  1.8806472794826775e-02  1.9052552996852941e-02  1.9301853125682496e-02 
 1.9554415313630565e-02  1.9810282244308041e-02  2.0069497159835192e-02  2.0332103868149699e-02 
 2.0598146750410318e-02  2.0867670768497319e-02  2.1140721472611271e-02  2.1417345008971057e-02 
 2.1697588127612712e-02  2.1981498190290293e-02  2.2269123178480125e-02  2.2560511701489785e-02 
 2.2855713004673199e-02  2.3154776977753231e-02  2.3457754163253092e-02  2.3764695765038268e-02 
 2.4075653656970012e-02  2.4390680391672165e-02  2.4709829209412691e-02  2.5033154047101391e-02 
 2.5360709547405377e-02  2.5692551067983824e-02  2.6028734690843533e-02  2.6369317231816881e-02 
 2.6714356250163936e-02  2.7063910058300014e-02  2.7418037731650673e-02  2.7776799118635561e-02 
 2.8140254850782972e-02  2.8508466352976686e-02  2.8881495853836970e-02  2.9259406396237326e-02 
 2.9642261847958842e-02  3.0030126912484106e-02  3.0423067139932196e-02  3.0821148938136773e-02 
 3.1224439583869213e-02  3.1633007234208518e-02  3.2046920938060011e-02  3.2466250647824817e-02 
 3.2891067231221947e-02  3.3321442483265053e-02  3.3757449138396074e-02  3.4199160882777489e-02 
 3.4646652366745405e-02  3.5099999217425688e-02  3.5559278051515097e-02  3.6024566488229742e-02 
 3.6495943162422856e-02  3.6973487737874323e-02  3.7457280920753934e-02  3.7947404473261101e-02 
 3.8443941227442747e-02  3.8946975099192135e-02  3.9456591102430848e-02  3.9972875363476379e-02 
 4.0495915135597645e-02  4.1025798813761026e-02  4.1562615949569337e-02  4.2106457266396134e-02 
 4.2657414674718397e-02  4.3215581287649463e-02  4.3781051436675406e-02  4.4353920687597269e-02 
 4.4934285856681980e-02  4.5522245027024406e-02  4.6117897565123744e-02  4.6721344137676694e-02 
 4.7332686728590187e-02  4.7952028656217179e-02  4.8579474590817552e-02  4.9215130572247613e-02 
 4.9859104027881150e-02  5.0511503790764904e-02  5.1172440118011545e-02  5.1842024709433505e-02 
 5.2520370726420428e-02  5.3207592811063645e-02  5.3903807105531137e-02  5.4609131271695747e-02 
 5.5323684511020280e-02  5.6047587584702907e-02  5.6780962834086027e-02  5.7523934201332290e-02 
 5.8276627250371103e-02  5.9039169188119300e-02  5.9811688885979167e-02  6.0594316901618372e-02 
 6.1387185501034287e-02  6.2190428680907309e-02  6.3004182191246649e-02  6.3828583558332361e-02 
 6.4663772107957623e-02  6.5509888988975168e-02  6.6367077197151778e-02  6.7235481599334720e-02 
 6.8115248957934901e-02  6.9006527955729841e-02  6.9909469220991532e-02  7.0824225352942860e-02 
 7.1750950947547340e-02  7.2689802623636168e-02  7.3640939049377144e-02  7.4604520969090093e-02 
 7.5580711230412725e-02  7.6569674811822711e-02  7.7571578850519129e-02  7.8586592670669142e-02 
 7.9614887812024179e-02  8.0656638058910601e-02  8.1712019469599578e-02  8.2781210406061415e-02 
 8.3864391564109186e-02  8.4961746003936647e-02  8.6073459181055925e-02  8.7199718977639978e-02 
 8.8340715734275196e-02  8.9496642282128780e-02  9.0667693975538727e-02  9.1854068725028395e-02 
 9.3055967030754166e-02  9.4273592016390365e-02  9.5507149463457577e-02  9.6756847846100391e-02 
 9.8022898366319833e-02  9.9305514989667165e-02  1.0060491448140450e-01  1.0192131644313862e-01 
 1.0325494334993421e-01  1.0460602058791268e-01  1.0597477649234299e-01  1.0736144238623070e-01 
 1.0876625261941231e-01  1.1018944460816081e-01  1.1163125887530982e-01  1.1309193909090176e-01 
 1.1457173211336980e-01  1.1607088803125683e-01  1.1758966020548108e-01  1.1912830531215481e-01 
 1.2068708338596319e-01  1.2226625786411073e-01  1.2386609563084283e-01  1.2548686706254983e-01 
 1.2712884607346131e-01  1.2879231016193812e-01  1.3047754045737045e-01  1.3218482176768928e-01 
 1.3391444262749949e-01  1.3566669534684309e-01  1.3744187606060015e-01  1.3924028477853642e-01 
 1.4106222543600586e-01  1.4290800594531547e-01  1.4477793824776475e-01  1.4667233836636337e-01 
 1.4859152645924026e-01  1.5053582687375097e-01  1.5250556820129321e-01  1.5450108333283943e-01 
 1.5652270951519642e-01  1.5857078840800071e-01  1.6064566614145975e-01  1.6274769337484890e-01 
 1.6487722535577368e-01  1.6703462198020733e-01  1.6922024785331419e-01  1.7143447235106882e-01 
 1.7367766968268142e-01  1.7595021895384003e-01  1.7825250423078071e-01  1.8058491460519427e-01 
 1.8294784425998570e-01  1.8534169253589058e-01  1.8776686399896522e-01  1.9022376850895900e-01 
 1.9271282128858175e-01  1.9523444299367743e-01  1.9778905978431591e-01  2.0037710339681503e-01 
 2.0299901121670508e-01  2.0565522635264807e-01  2.0834619771132398e-01  2.1107238007329721e-01 
 2.1383423416987551e-01  2.1663222676097468e-01  2.1946683071400211e-01  2.2233852508377250e-01 
 2.2524779519346963e-01  2.2819513271666561e-01  2.3118103576041724e-01  2.3420600894944557e-01 
 2.3727056351141931e-01  2.4037521736335335e-01  2.4352049519913810e-01  2.4670692857821386e-01 
 2.4993505601540567e-01  2.5320542307193372e-01  2.5651858244761433e-01  2.5987509407426757e-01 
 2.6327552521034731e-01  2.6672045053680871e-01  2.7021045225423135e-01  2.7374612018121203e-01 
 2.7732805185404552e-01  2.8095685262770997e-01  2.8463313577817351e-01  2.8835752260603742e-01 
 2.9213064254154053e-01  2.9595313325093242e-01  2.9982564074424073e-01  3.0374881948444887e-01 
 3.0772333249810147e-01  3.1174985148735757e-01  3.1582905694350982e-01  3.1996163826198920e-01 
 3.2414829385887456e-01  3.2838973128892635e-01  3.3268666736516528e-01  3.3703982828001539e-01 
 3.4144994972803216e-01  3.4591777703023696e-01  3.5044406526007760e-01  3.5502957937103796e-01 
 3.5967509432591749e-01  3.6438139522779894e-01  3.6914927745273685e-01  3.7397954678417522e-01 
 3.7887301954912767e-01  3.8383052275613833e-01  3.8885289423504860e-01  3.9394098277859213e-01 
 3.9909564828584282e-01  4.0431776190754004e-01  4.0960820619331506e-01  4.1496787524084389e-01 
 4.2039767484695212e-01  4.2589852266069667e-01  4.3147134833845052e-01  4.3711709370101703e-01 
 4.4283671289280013e-01  4.4863117254305629e-01  4.5450145192925856e-01  4.6044854314259354e-01 
 4.6647345125563172e-01  4.7257719449218405e-01  4.7876080439938490e-01  4.8502532602202636e-01 
 4.9137181807917274e-01  4.9780135314308693e-01  5.0431501782049770e-01  5.1091391293623867e-01 
 5.1759915371929033e-01  5.2437186999125662e-01  5.3123320635730731e-01  5.3818432239961878e-01 
 5.4522639287334651e-01  5.5236060790516139e-01  5.5958817319438392e-01  5.6691031021675020e-01 
 5.7432825643084573e-01  5.8184326548723364e-01  5.8945660744033224e-01  5.9716956896305207e-01 
 6.0498345356424799e-01  6.1289958180901538e-01  6.2091929154186876e-01  6.2904393811284076e-01 
 6.3727489460653919e-01  6.4561355207420201e-01  6.5406131976878812e-01  6.6261962538314445e-01 
 6.7128991529128923e-01  6.8007365479285320e-01  6.8897232836071820e-01  6.9798743989189704e-01 
 7.0712051296169531e-01  7.1637309108119918e-01  7.2574673795813438e-01  7.3524303776113065e-01 
 7.4486359538745806e-01  7.5461003673425342e-01  7.6448400897330193e-01  7.7448718082941259e-01 
 7.8462124286243784e-01  7.9488790775298146e-01  8.0528891059184537e-01  8.1582600917326475e-01 
 8.2650098429197927e-01  8.3731564004419146e-01  8.4827180413246328e-01  8.5937132817460260e-01 
 8.7061608801659007e-01  8.8200798404960312e-01  8.9354894153118469e-01  9.0524091091061809e-01 
 9.1708586815855786e-01  9.2908581510096788e-01  9.4124277975744408e-01  9.5355881668394826e-01 
 9.6603600732003425e-01  9.7867646034061639e-01  9.9148231201234083e-01  1.0044557265546192e+00 
 1.0175988965053870e+00  1.0309140430916479e+00  1.0444034166048666e+00  1.0580692967812728e+00 
 1.0719139931871422e+00  1.0859398456091192e+00  1.1001492244496460e+00  1.1145445311275666e+00 
 1.1291281984839714e+00  1.1439026911933541e+00  1.1588705061801499e+00  1.1740341730407118e+00 
 1.1893962544708327e+00  1.2049593466988373e+00  1.2207260799243538e+00  1.2366991187628236e+00 
 1.2528811626958281e+00  1.2692749465273061e+00  1.2858832408457446e+00  1.3027088524924126e+00 
 1.3197546250357248e+00  1.3370234392518119e+00  1.3545182136113776e+00  1.3722419047729280e+00 
 1.3901975080824536e+00  1.4083880580796495e+00  1.4268166290107609e+00  1.4454863353481364e+00 
 1.4644003323165860e+00  1.4835618164266087e+00  1.5029740260146283e+00  1.5226402417902680e+00 
 1.5425637873908011e+00  1.5627480299428544e+00  1.5831963806314595e+00  1.6039122952765523e+00 
 1.6248992749170128e+00  1.6461608664023515e+00  1.6677006629921347e+00  1.6895223049632524e+00 
 1.7116294802251355e+00  1.7340259249430203e+00  1.7567154241693699e+00  1.7797018124835571e+00 
 1.8029889746399161e+00  1.8265808462242776e+00  1.8504814143190931e+00  1.8746947181772504e+00 
 1.8992248499047344e+00  1.9240759551521911e+00  1.9492522338155553e+00  1.9747579407458435e+00 
 2.0005973864682325e+00  2.0267749379105497e+00  2.0532950191412946e+00  2.0801621121173151e+00 
 2.1073807574412706e+00  2.1349555551290034e+00  2.1628911653869540e+00  2.1911923093997454e+00 
 2.2198637701280743e+00  2.2489103931170460e+00  2.2783370873150788e+00  2.3081488259035301e+00 
 2.3383506471371809e+00  2.3689476551956945e+00  2.3999450210462610e+00  2.4313479833174854e+00 
 2.4631618491847340e+00  2.4953919952670582e+00  2.5280438685358568e+00  2.5611229872354273e+00 
 2.5946349418155608e+00  2.6285853958763430e+00  2.6629800871253164e+00  2.6978248283471640e+00 
 2.7331255083860864e+00  2.7688880931410291e+00  2.8051186265739338e+00  2.8418232317311833e+00 
 2.8790081117784103e+00  2.9166795510488446e+00  2.9548439161053919e+00  2.9935076568165693e+00 
 3.0326773074465869e+00  3.0723594877596283e+00  3.1125609041386140e+00  3.1532883507185954e+00 
 3.1945487105349790e+00  3.2363489566867782e+00  3.2786961535150816e+00  3.3215974577969423e+00 
 3.3650601199548946e+00  3.4090914852822873e+00  3.4536989951846602e+00  3.4988901884373576e+00 
 3.5446727024595979e+00  3.5910542746052174e+00  3.6380427434703018e+00  3.6856460502179265e+00 
 3.7338722399202391e+00  3.7827294629180686e+00  3.8322259761983934e+00  3.8823701447897641e+00 
 3.9331704431760208e+00  3.9846354567285007e+00  4.0367738831569850e+00  4.0895945339796356e+00 
 4.1431063360121589e+00  4.1973183328764625e+00  4.2522396865290464e+00  4.3078796788093943e+00 
 4.3642477130086323e+00  4.4213533154587008e+00  4.4792061371423300e+00  4.5378159553240796e+00 
 4.5971926752027210e+00  4.6573463315852335e+00  4.7182870905827281e+00  4.7800252513285031e+00 
 4.8425712477186735e+00  4.9059356501754987e+00  4.9701291674338028e+00  5.0351626483507923e+00 
 5.1010470837395276e+00  5.1677936082264004e+00  5.2354135021329116e+00  5.3039181933820743e+00 
 5.3733192594297563e+00  5.4436284292213024e+00  5.5148575851737487e+00  5.5870187651839842e+00 
 5.6601241646631815e+00  5.7341861385978481e+00  5.8092172036378580e+00  5.8852300402117796e+00 
 5.9622374946699246e+00  6.0402525814553609e+00  6.1192884853034482e+00  6.1993585634700512e+00 
 6.2804763479889525e+00  6.3626555479588065e+00  6.4459100518600012e+00  6.5302539299018489e+00 
 6.6157014364004860e+00  6.7022670121878853e+00  6.7899652870523877e+00  6.8788110822111754e+00 
 6.9688194128150940e+00  7.0600054904862413e+00  7.1523847258887780e+00  7.2459727313333566e+00 
 7.3407853234156475e+00  7.4368385256893745e+00  7.5341485713743506e+00  7.6327319060998784e+00 
 7.7326051906841773e+00  7.8337853039500525e+00  7.9362893455774595e+00  8.0401346389934059e+00 
 8.1453387342996422e+00  8.2519194112386671e+00  8.3598946821985596e+00  8.4692827952570990e+00 
 8.5801022372657521e+00  8.6923717369739748e+00  8.8061102681944323e+00  8.9213370530096103e+00 
 9.0380715650203900e+00  9.1563335326371433e+00  9.2761429424138733e+00  9.3975200424259864e+00 
 9.5204853456922951e+00  9.6450596336416847e+00  9.7712639596253350e+00  9.8991196524747149e+00 
 1.0028648320106226e+01  1.0159871853172987e+01  1.0292812428764414e+01  1.0427492514154190e+01 
 1.0563934870597301e+01  1.0702162557176727e+01  1.0842198934700500e+01  1.0984067669649718e+01 
 1.1127792738178252e+01  1.1273398430164761e+01  1.1420909353317745e+01  1.1570350437334312e+01 
 1.1721746938113339e+01  1.1875124442023800e+01  1.2030508870228932e+01  1.2187926483066883e+01 
 1.2347403884488916e+01  1.2508968026555445e+01  1.2672646213991015e+01  1.2838466108798874e+01 
 1.3006455734935912e+01  1.3176643483048775e+01  1.3349058115271962e+01  1.3523728770088677e+01 
 1.3700684967255324e+01  1.3879956612790389e+01  1.4061574004028653e+01  1.4245567834741509e+01 
 1.4431969200324263e+01  1.4620809603051358e+01  1.4812120957400307e+01  1.5005935595445337e+01 
 1.5202286272321603e+01  1.5401206171760778e+01  1.5602728911699341e+01  1.5806888549959984e+01 
 1.6013719590007494e+01  1.6223256986779919e+01  1.6435536152596029e+01  1.6650592963140095e+01 
 1.6868463763524954e+01  1.7089185374434422e+01  1.7312795098346086e+01  1.7539330725835494e+01 
 1.7768830541962878e+01  1.8001333332743386e+01  1.8236878391702042e+01  1.8475505526514432e+01 
 1.8717255065734292e+01  1.8962167865609171e+01  1.9210285316985104e+01  1.9461649352301940e+01 
 1.9716302452679926e+01  1.9974287655099118e+01  2.0235648559672764e+01  2.0500429337015792e+01 
 2.0768674735709784e+01  2.1040430089865563e+01  2.1315741326784792e+01  2.1594654974721767e+01 
 2.1877218170746843e+01  2.2163478668712671e+01  2.2453484847324731e+01  2.2747285718317460e+01 
 2.3044930934737323e+01  2.3346470799334320e+01  2.3651956273063266e+01  2.3961438983696347e+01 
 2.4274971234548172e+01  2.4592606013315415e+01  2.4914397001031688e+01  2.5240398581139811e+01 
 2.5570665848682740e+01  2.5905254619614752e+01  2.6244221440234494e+01  2.6587623596741420e+01 
 2.6935519124917306e+01  2.7287966819934454e+01  2.7645026246292165e+01  2.8006757747883338e+01 
 2.8373222458192696e+01  2.8744482310628502e+01  2.9120600048989456e+01  2.9501639238068531e+01 
 2.9887664274395597e+01  3.0278740397120622e+01  3.0674933699039038e+01  3.1076311137761898e+01 
 3.1482940547031667e+01  3.1894890648186333e+01  3.2312231061773467e+01  3.2735032319316268e+01 
 3.3163365875233588e+01  3.3597304118915837e+01  3.4036920386959018e+01  3.4482288975558760e+01 
 3.4933485153066556e+01  3.5390585172710288e+01  3.5853666285481225e+01  3.6322806753189603e+01 
 3.6798085861691064e+01  3.7279583934286158e+01  3.7767382345295161e+01  3.8261563533810616e+01 
 3.8762211017629433e+01  3.9269409407368038e+01  3.9783244420761491e+01  4.0303802897150021e+01 
 4.0831172812155117e+01  4.1365443292547603e+01  4.1906704631310298e+01  4.2455048302897687e+01 
 4.3010566978695394e+01  4.3573354542681798e+01  4.4143506107294726e+01  4.4721118029505604e+01 
 4.5306287927104044e+01  4.5899114695195522e+01  4.6499698522914819e+01  4.7108140910358266e+01 
 4.7724544685737499e+01  4.8349014022757736e+01  4.8981654458223069e+01  4.9622572909872922e+01 
 5.0271877694451057e+01  5.0929678546011502e+01  5.1596086634463774e+01  5.2271214584360948e+01 
 5.2955176493933429e+01  5.3648087954371825e+01  5.4350066069362150e+01  5.5061229474876612e+01 
 5.5781698359223384e+01  5.6511594483358699e+01  5.7251041201464766e+01  5.8000163481796889e+01 