  <PP_INFO>

############################################################
#    Opium Parameter File                                  #
############################################################
#-----------------------------------------------------------
#Command line   : opium Eu Eu.log ae ps nl tc2 ke upf qmcpack rpt 
 
#Opium version  : 4.1 
#Compile Host   : py-garuda.cos.ncsu.edu 
#Compile OS     : Linux 5.15.0-113-generic x86_64 
#Compile Date   : Sat Jul 13 02:11:52 EDT 2024 
#-----------------------------------------------------------
#Execution Host : py-garuda.cos.ncsu.edu 
#Execution Date : Fri Jun 13 17:59:06 2025
 
#-----------------------------------------------------------
############################################################
[Atom]
Eu
15            
100   2.00  -
200   2.00  -
210   6.00  -
300   2.00  -
310   6.00  -
320   10.00  -
400   2.00  -
410   6.00  -
420   10.00  -
500   2.00  -
510   5.50  -
520   1.00  -
430   6.50  -
600   1.50  -
610   0.10  -

[Pseudo]
6 -1 -1 -1 -1 -1 -1
g

[Gaussinfo]
17 5 3
2 2 2 2 4  2 2 2
2 5.87625 250.00884005
2 3.84072872 9.13877768
2 10.10783978 13.51565279
2 2.84934031 49.49492873
2 7.46537283 249.55127795
2 1.32395803 8.54216389
2 3.60460951 -8.75784717
2 11.10451196 11.19196184
1 4.81511886 17.00000000
3 3.25798813 81.85702055
2 3.50697874 -87.86092575
2 0.81034551 -0.75817197
4 2.43872239 4.44643615
4 2.13408163 -2.04728134
4 2.60487535 2.14535325
4 2.82741469 -1.88999439
4 5.37105865 2.20132726
4 5.16838453 -1.83989309

[KBdesign]
f

[Relativity]
frl

[XC]
pbe

[Configs]
8
 
500  2.00 -
510  6.00 -
520  1.00 -
430  6.00  -
600  2.00 -
610  0.00 -

500  2.00 -
510  6.00 -
520  1.00 -
430  7.00  -
600  0.00 -
610  0.00 -
 
500  2.00 -
510  6.00 -
520  1.00 -
430  6.00  -
600  1.00 -
610  0.00 -
 
500  2.00 -
510  6.00 -
520  0.00 -
430  7.00  -
600  0.00 -
610  0.00 -

500  2.00 -
510  6.00 -
520  1.00 -
430  6.00 -
600  0.00 -
610  0.00 -

500  2.00 -
510  5.00 -
520  0.00 -
430  7.00  -
600  0.00 -
610  0.00 -

500  2.00 -
510  4.00 -
520  0.00 -
430  7.00  -
600  0.00 -
610  0.00 -

500  2.00 -
510  3.00 -
520  0.00 -
430  7.00  -
600  0.00 -
610  0.00 -
############################################################
  </PP_INFO>



<PP_HEADER>
   0         Version Number
   Eu        Element
   NC        Norm - Conserving pseudopotential
    F      Nonlinear Core Correction
SLA  PW   PBE  PBE     PBE  Exchange-Correlation functional
 17          Z valence
 0          Total energy
 0.000000   0.000000     Suggested cutoff for wfc and rho
 3           Max angular momentum component
 1182           Number of points in mesh
 7  6     Number of Wavefuncitons, Number of Projectors
 Wavefunctions         nl  l   occ
                      5S  0  2.000000
                      5P  1  1.833333
                      5P  1  3.666667
                      5D  2  0.400000
                      5D  2  0.600000
                      4F  3  2.785714
                      4F  3  3.714286
</PP_HEADER>
<PP_MESH>
  <PP_R>
 2.5131581370971801e-05  2.5460424779753212e-05  2.5793571060920680e-05  2.6131076516988639e-05 
 2.6472998187182453e-05  2.6819393857078226e-05  2.7170322068368573e-05  2.7525842128756470e-05 
 2.7886014121978289e-05  2.8250898917958138e-05  2.8620558183094994e-05  2.8995054390684488e-05 
 2.9374450831477043e-05  2.9758811624374156e-05  3.0148201727264664e-05  3.0542686948002686e-05 
 3.0942333955529472e-05  3.1347210291140495e-05  3.1757384379900109e-05  3.2172925542205569e-05 
 3.2593904005502344e-05  3.3020390916152692e-05  3.3452458351459595e-05  3.3890179331848005e-05 
 3.4333627833205378e-05  3.4782878799383924e-05  3.5238008154866177e-05  3.5699092817596475e-05 
 3.6166210711980232e-05  3.6639440782053401e-05  3.7118863004824151e-05  3.7604558403789192e-05 
 3.8096609062627009e-05  3.8595098139069976e-05  3.9100109878958520e-05  3.9611729630478652e-05 
 4.0130043858586085e-05  4.0655140159619001e-05  4.1187107276102061e-05  4.1726035111744085e-05 
 4.2272014746631994e-05  4.2825138452623604e-05  4.3385499708941644e-05  4.3953193217972178e-05 
 4.4528314921269405e-05  4.5110962015770024e-05  4.5701232970219757e-05  4.6299227541814816e-05 
 4.6905046793061077e-05  4.7518793108853963e-05  4.8140570213781523e-05  4.8770483189654435e-05 
 4.9408638493264857e-05  5.0055143974377980e-05  5.0710108893958860e-05  5.1373643942637790e-05 
 5.2045861259417260e-05  5.2726874450623765e-05  5.3416798609107479e-05  5.4115750333693330e-05 
 5.4823847748886247e-05  5.5541210524834791e-05  5.6267959897555493e-05  5.7004218689422052e-05 
 5.7750111329922699e-05  5.8505763876688936e-05  5.9271304036799720e-05  6.0046861188364219e-05 
 6.0832566402386821e-05  6.1628552464918838e-05  6.2434953899499339e-05  6.3251906989890075e-05 
 6.4079549803107766e-05  6.4918022212757706e-05  6.5767465922672780e-05  6.6628024490861717e-05 
 6.7499843353770756e-05  6.8383069850862737e-05  6.9277853249517896e-05  7.0184344770260143e-05 
 7.1102697612314118e-05  7.2033066979495849e-05  7.2975610106442796e-05  7.3930486285186738e-05 
 7.4897856892074588e-05  7.5877885415041407e-05  7.6870737481240018e-05  7.7876580885032754e-05 
 7.8895585616348840e-05  7.9927923889413238e-05  8.0973770171851125e-05  8.2033301214173455e-05 
 8.3106696079648172e-05  8.4194136174562336e-05  8.5295805278880188e-05  8.6411889577302429e-05 
 8.7542577690731985e-05  8.8688060708150992e-05  8.9848532218915827e-05  9.1024188345473889e-05 
 9.2215227776508698e-05  9.3421851800518885e-05  9.4644264339836408e-05  9.5882671985089970e-05 
 9.7137284030118939e-05  9.8408312507345140e-05  9.9695972223606404e-05  1.0100048079645949e-04 
 1.0232205869095811e-04  1.0366092925691189e-04  1.0501731876663314e-04  1.0639145645317732e-04 
 1.0778357454908404e-04  1.0919390832562490e-04  1.1062269613256495e-04  1.1207017943844402e-04 
 1.1353660287138605e-04  1.1502221426044146e-04  1.1652726467747088e-04  1.1805200847957695e-04 
 1.1959670335209128e-04  1.2116161035212392e-04  1.2274699395268233e-04  1.2435312208736846e-04 
 1.2598026619565984e-04  1.2762870126878349e-04  1.2929870589619021e-04  1.3099056231263679e-04 
 1.3270455644588447e-04  1.3444097796502116e-04  1.3620012032941647e-04  1.3798228083831691e-04 
 1.3978776068109032e-04  1.4161686498812714e-04  1.4346990288240875e-04  1.4534718753174978e-04 
 1.4724903620172400e-04  1.4917577030928330e-04  1.5112771547707760e-04  1.5310520158848625e-04 
 1.5510856284336842e-04  1.5713813781454450e-04  1.5919426950501524e-04  1.6127730540593005e-04 
 1.6338759755531404e-04  1.6552550259756323e-04  1.6769138184371805e-04  1.6988560133252622e-04 
 1.7210853189230369e-04  1.7436054920360596e-04  1.7664203386271878e-04  1.7895337144597934e-04 
 1.8129495257494061e-04  1.8366717298238660e-04  1.8607043357921223e-04  1.8850514052217855e-04 
 1.9097170528255340e-04  1.9347054471565217e-04  1.9600208113128650e-04  1.9856674236513590e-04 
 2.0116496185105311e-04  2.0379717869431518e-04  2.0646383774583358e-04  2.0916538967733495e-04 
 2.1190229105752566e-04  2.1467500442925305e-04  2.1748399838767622e-04  2.2032974765945991e-04 
 2.2321273318300414e-04  2.2613344218972440e-04  2.2909236828639400e-04  2.3209001153856598e-04 
 2.3512687855508469e-04  2.3820348257370410e-04  2.4132034354782560e-04  2.4447798823437248e-04 
 2.4767695028281219e-04  2.5091777032534482e-04  2.5420099606827099e-04  2.5752718238455566e-04 
 2.6089689140760294e-04  2.6431069262625791e-04  2.6776916298105178e-04  2.7127288696170588e-04 
 2.7482245670591232e-04  2.7841847209940607e-04  2.8206154087734742e-04  2.8575227872703116e-04 
 2.8949130939193759e-04  2.9327926477714853e-04  2.9711678505613977e-04  3.0100451877897242e-04 
 3.0494312298189844e-04  3.0893326329840251e-04  3.1297561407169508e-04  3.1707085846867801e-04 
 3.2121968859540159e-04  3.2542280561403161e-04  3.2968091986134812e-04  3.3399475096879372e-04 
 3.3836502798409299e-04  3.4279248949446294e-04  3.4727788375143667e-04  3.5182196879731943e-04 
 3.5642551259329924e-04  3.6108929314923469e-04  3.6581409865513962e-04  3.7060072761439024e-04 
 3.7544998897867324e-04  3.8036270228470112e-04  3.8533969779271500e-04  3.9038181662680158e-04 
 3.9548991091704460e-04  4.0066484394353676e-04  4.0590749028227675e-04  4.1121873595297335e-04 
 4.1659947856878630e-04  4.2205062748802447e-04  4.2757310396782973e-04  4.3316784131987058e-04 
 4.3883578506807592e-04  4.4457789310842937e-04  4.5039513587085653e-04  4.5628849648323002e-04 
 4.6225897093751984e-04  4.6830756825811911e-04  4.7443531067237134e-04  4.8064323378332928e-04 
 4.8693238674477388e-04  4.9330383243852442e-04  4.9975864765406796e-04  5.0629792327053908e-04 
 5.1292276444108104e-04  5.1963429077961929e-04  5.2643363655007890e-04  5.3332195085807870e-04 
 5.4030039784513147e-04  5.4737015688538710e-04  5.5453242278495022e-04  5.6178840598380487e-04 
 5.6913933276038161e-04  5.7658644543880165e-04  5.8413100259883217e-04  5.9177427928859007e-04 
 5.9951756724002788e-04  6.0736217508723937e-04  6.1530942858762099e-04  6.2336067084593002e-04 
 6.3151726254127058e-04  6.3978058215705277e-04  6.4815202621395954e-04  6.5663300950596069e-04 
 6.6522496533941839e-04  6.7392934577531819e-04  6.8274762187467159e-04  6.9168128394712675e-04 
 7.0073184180283730e-04  7.0990082500762208e-04  7.1918978314146581e-04  7.2860028606040207e-04 
 7.3813392416182137e-04  7.4779230865325416e-04  7.5757707182466736e-04  7.6748986732432607e-04 
 7.7753237043826225e-04  7.8770627837340494e-04  7.9801331054440972e-04  8.0845520886424548e-04 
 8.1903373803858114e-04  8.2975068586402462e-04  8.4060786353026601e-04  8.5160710592617202e-04 
 8.6275027194988722e-04  8.7403924482299061e-04  8.8547593240876710e-04  8.9706226753463909e-04 
 9.0880020831881942e-04  9.2069173850123842e-04  9.3273886777879903e-04  9.4494363214502313e-04 
 9.5730809423413702e-04  9.6983434366966275e-04  9.8252449741756767e-04  9.9538070014403967e-04 
 1.0084051245779382e-03  1.0215999718779924e-03  1.0349674720048008e-03  1.0485098840977006e-03 
 1.0622294968565679e-03  1.0761286289286127e-03  1.0902096293002373e-03  1.1044748776940175e-03 
 1.1189267849708851e-03  1.1335677935375669e-03  1.1484003777593572e-03  1.1634270443782934e-03 
 1.1786503329367982e-03  1.1940728162068710e-03  1.2096971006248915e-03  1.2255258267321145e-03 
 1.2415616696209244e-03  1.2578073393869373e-03  1.2742655815870098e-03  1.2909391777032456e-03 
 1.3078309456130742e-03  1.3249437400654749e-03  1.3422804531634410e-03  1.3598440148527488e-03 
 1.3776373934171276e-03  1.3956635959799038e-03  1.4139256690122162e-03  1.4324266988478703e-03 
 1.4511698122049437e-03  1.4701581767142043e-03  1.4893950014544487e-03  1.5088835374948426e-03 
 1.5286270784443622e-03  1.5486289610084191e-03  1.5688925655527731e-03  1.5894213166748230e-03 
 1.6102186837823661e-03  1.6312881816799448e-03  1.6526333711628510e-03  1.6742578596189112e-03 
 1.6961653016381423e-03  1.7183593996303878e-03  1.7408439044510327e-03  1.7636226160349065e-03 
 1.7866993840384843e-03  1.8100781084904806e-03  1.8337627404509723e-03  1.8577572826791334e-03 
 1.8820657903097092e-03  1.9066923715383459e-03  1.9316411883158850e-03  1.9569164570517423e-03 
 1.9825224493264918e-03  2.0084634926137743e-03  2.0347439710116442e-03  2.0613683259835028e-03 
 2.0883410571087085e-03  2.1156667228430198e-03  2.1433499412889826e-03  2.1713953909764036e-03 
 2.1998078116530302e-03  2.2285920050855819e-03  2.2577528358712598e-03  2.2872952322598680e-03 
 2.3172241869867118e-03  2.3475447581163748e-03  2.3782620698975425e-03  2.4093813136290168e-03 
 2.4409077485370548e-03  2.4728467026641924e-03  2.5052035737696942e-03  2.5379838302417926e-03 
 2.5711930120218469e-03  2.6048367315406207e-03  2.6389206746667880e-03  2.6734506016678609e-03 
 2.7084323481836865e-03  2.7438718262126865e-03  2.7797750251109966e-03  2.8161480126046839e-03 
 2.8529969358152083e-03  2.8903280222982923e-03  2.9281475810964044e-03  2.9664620038049967e-03 
 3.0052777656526986e-03  3.0446014265956473e-03  3.0844396324261367e-03  3.1247991158957710e-03 
 3.1656866978533155e-03  3.2071092883974410e-03  3.2490738880445336e-03  3.2915875889118150e-03 
 3.3346575759159200e-03  3.3782911279871619e-03  3.4224956192996938e-03  3.4672785205177581e-03 
 3.5126474000582476e-03  3.5586099253697881e-03  3.6051738642285552e-03  3.6523470860510359e-03 
 3.7001375632239987e-03  3.7485533724518319e-03  3.7976026961215291e-03  3.8472938236855324e-03 
 3.8976351530626706e-03  3.9486351920574245e-03  4.0003025597977705e-03  4.0526459881918319e-03 
 4.1056743234035844e-03  4.1593965273478938e-03  4.2138216792050919e-03  4.2689589769553784e-03 
 4.3248177389333051e-03  4.3814074054025973e-03  4.4387375401515753e-03  4.4968178321094640e-03 
 4.5556580969838443e-03  4.6152682789195182e-03  4.6756584521791137e-03  4.7368388228456477e-03 
 4.7988197305473771e-03  4.8616116502052239e-03  4.9252251938030622e-03  4.9896711121811656e-03 
 5.0549602968531270e-03  5.1211037818465555e-03  5.1881127455678340e-03  5.2559985126913239e-03 
 5.3247725560732432e-03  5.3944464986906129e-03  5.4650321156055667e-03  5.5365413359553623e-03 
 5.6089862449684377e-03  5.6823790860068436e-03  5.7567322626354009e-03  5.8320583407179194e-03 
 5.9083700505408810e-03  5.9856802889648774e-03  6.0640021216042056e-03  6.1433487850349969e-03 
 6.2237336890322249e-03  6.3051704188359864e-03  6.3876727374474465e-03  6.4712545879548212e-03 
 6.5559300958897655e-03  6.6417135716146632e-03  6.7286195127410848e-03  6.8166626065799254e-03 
 6.9058577326235934e-03  6.9962199650606847e-03  7.0877645753235526e-03  7.1805070346692146e-03 
 7.2744630167940428e-03  7.3696484004826300e-03  7.4660792722913739e-03  7.5637719292671263e-03 
 7.6627428817014334e-03  7.7630088559208178e-03  7.8645867971135642e-03  7.9674938721935023e-03 
 8.0717474727012451e-03  8.1773652177434212e-03  8.2843649569703092e-03  8.3927647735925169e-03 
 8.5025829874370521e-03  8.6138381580434364e-03  8.7265490878002967e-03  8.8407348251230266e-03 
 8.9564146676730065e-03  9.0736081656189564e-03  9.1923351249409684e-03  9.3126156107777355e-03 
 9.4344699508176477e-03  9.5579187387342026e-03  9.6829828376663717e-03  9.8096833837445444e-03 
 9.9380417896625627e-03  1.0068079748296538e-02  1.0199819236370979e-02  1.0333282518172929e-02 
 1.0468492149314657e-02  1.0605470980545642e-02  1.0744242161614386e-02  1.0884829145180778e-02 
 1.1027255690779652e-02  1.1171545868836202e-02  1.1317724064733949e-02  1.1465814982935909e-02 
 1.1615843651159748e-02  1.1767835424607454e-02  1.1921815990250505e-02  1.2077811371170984e-02 
 1.2235847930959550e-02  1.2395952378170949e-02  1.2558151770837826e-02  1.2722473521043590e-02 
 1.2888945399555127e-02  1.3057595540516139e-02  1.3228452446201829e-02  1.3401544991835920e-02 
 1.3576902430470607e-02  1.3754554397930384e-02  1.3934530917820582e-02  1.4116862406601422e-02 
 1.4301579678728476e-02  1.4488713951860379e-02  1.4678296852134700e-02  1.4870360419512786e-02 
 1.5064937113194666e-02  1.5262059817104682e-02  1.5461761845448969e-02  1.5664076948345627e-02 
 1.5869039317528571e-02  1.6076683592126027e-02  1.6287044864514617e-02  1.6500158686250061e-02 
 1.6716061074075445e-02  1.6934788516008190e-02  1.7156377977506573e-02  1.7380866907716994e-02 
 1.7608293245802969e-02  1.7838695427356919e-02  1.8072112390895921e-02  1.8308583584442352e-02 
 1.8548148972190776e-02  1.8790849041261871e-02  1.9036724808544979e-02  1.9285817827629979e-02 
 1.9538170195829953e-02  1.9793824561295765e-02  2.0052824130223648e-02  2.0315212674157205e-02 
 2.0581034537384864e-02  2.0850334644434212e-02  2.1123158507664268e-02  2.1399552234957275e-02 
 2.1679562537510997e-02  2.1963236737733011e-02  2.2250622777238334e-02  2.2541769224951644e-02 
 2.2836725285315565e-02  2.3135540806606316e-02  2.3438266289358228e-02  2.3744952894898363e-02 
 2.4055652453993024e-02  2.4370417475607187e-02  2.4689301155778682e-02  2.5012357386608425e-02 
 2.5339640765368338e-02  2.5671206603728392e-02  2.6007110937104436e-02  2.6347410534128309e-02 
 2.6692162906241813e-02  2.7041426317416403e-02  2.7395259793999847e-02  2.7753723134691842e-02 
 2.8116876920650149e-02  2.8484782525728933e-02  2.8857502126851103e-02  2.9235098714516360e-02 
 2.9617636103446757e-02  3.0005178943371447e-02  3.0397792729952799e-02  3.0795543815855198e-02 
 3.1198499421958854e-02  3.1606727648720266e-02  3.2020297487681378e-02  3.2439278833129311e-02 
 3.2863742493908679e-02  3.3293760205388420e-02  3.3729404641585220e-02  3.4170749427445683e-02 
 3.4617869151289088e-02  3.5070839377412934e-02  3.5529736658863546e-02  3.5994638550373714e-02 
 3.6465623621469635e-02  3.6942771469749280e-02  3.7426162734334724e-02  3.7915879109500124e-02 
 3.8412003358478483e-02  3.8914619327448711e-02  3.9423811959705846e-02  3.9939667310016649e-02 
 4.0462272559163119e-02  4.0991716028676212e-02  4.1528087195762391e-02  4.2071476708425572e-02 
 4.2621976400786611e-02  4.3179679308603822e-02  4.3744679684995992e-02  4.4317073016371500e-02 
 4.4896956038565694e-02  4.5484426753189498e-02  4.6079584444191940e-02  4.6682529694639312e-02 
 4.7293364403714053e-02  4.7912191803935765e-02  4.8539116478608001e-02  4.9174244379492908e-02 
 4.9817682844717402e-02  5.0469540616913569e-02  5.1129927861596376e-02  5.1798956185781973e-02 
 5.2476738656849493e-02  5.3163389821649774e-02  5.3859025725863888e-02  5.4563763933615360e-02 
 5.5277723547338654e-02  5.6001025227907772e-02  5.6733791215028265e-02  5.7476145347896010e-02 
 5.8228213086126336e-02  5.8990121530957000e-02  5.9761999446728636e-02  6.0543977282646065e-02 
 6.1336187194824782e-02  6.2138763068625487e-02  6.2951840541281057e-02  6.3775557024819560e-02 
 6.4610051729287271e-02  6.5455465686275388e-02  6.6311941772754832e-02  6.7179624735222779e-02 
 6.8058661214164914e-02  6.8949199768838454e-02  6.9851390902378671e-02  7.0765387087234483e-02 
 7.1691342790936474e-02  7.2629414502202477e-02  7.3579760757384399e-02  7.4542542167261250e-02 
 7.5517921444182845e-02  7.6506063429568449e-02  7.7507135121765491e-02  7.8521305704272598e-02 
 7.9548746574332155e-02  8.0589631371896370e-02  8.1644136008973536e-02  8.2712438699357155e-02 
 8.3794719988744590e-02  8.4891162785249663e-02  8.6001952390314607e-02  8.7127276530026485e-02 
 8.8267325386843273e-02  8.9422291631735235e-02  9.0592370456746660e-02  9.1777759607983872e-02 
 9.2978659419034770e-02  9.4195272844825706e-02  9.5427805495921281e-02  9.6676465673273065e-02 
 9.7941464403422981e-02  9.9223015474167231e-02  1.0052133547068717e-01  1.0183664381215198e-01 
 1.0316916278880210e-01  1.0451911759951613e-01  1.0588673638987008e-01  1.0727225029069461e-01 
 1.0867589345713657e-01  1.1009790310823196e-01  1.1153851956699627e-01  1.1299798630103988e-01 
 1.1447654996371451e-01  1.1597446043579827e-01  1.1749197086772611e-01  1.1902933772237287e-01 
 1.2058682081839603e-01  1.2216468337414579e-01  1.2376319205214957e-01  1.2538261700417852e-01 
 1.2702323191690418e-01  1.2868531405815112e-01  1.3036914432375740e-01  1.3207500728504556e-01 
 1.3380319123691620e-01  1.3555398824657042e-01  1.3732769420286992e-01  1.3912460886634287e-01 
 1.4094503591984428e-01  1.4278928301987898e-01  1.4465766184859633e-01  1.4655048816646532e-01 
 1.4846808186563878e-01  1.5041076702401596e-01  1.5237887196001235e-01  1.5437272928804643e-01 
 1.5639267597475223e-01  1.5843905339592745e-01  1.6051220739422714e-01  1.6261248833761080e-01 
 1.6474025117855692e-01  1.6689585551404995e-01  1.6907966564635318e-01  1.7129205064457653e-01 
 1.7353338440705054e-01  1.7580404572451555e-01  1.7810441834413865e-01  1.8043489103436763e-01 
 1.8279585765063394e-01  1.8518771720191501e-01  1.8761087391816791e-01  1.9006573731864501e-01 
 1.9255272228110376e-01  1.9507224911192217e-01  1.9762474361713131e-01  2.0021063717437773e-01 
 2.0283036680582767e-01  2.0548437525202337e-01  2.0817311104670932e-01  2.1089702859263432e-01 
 2.1365658823834680e-01  2.1645225635599488e-01  2.1928450542014449e-01  2.2215381408762838e-01 
 2.2506066727844071e-01  2.2800555625768920e-01  2.3098897871862056e-01  2.3401143886673148e-01 
 2.3707344750498072e-01  2.4017552212011606e-01  2.4331818697013063e-01  2.4650197317286401e-01 
 2.4972741879576216e-01  2.5299506894681217e-01  2.5630547586666746e-01  2.5965919902197548e-01 
 2.6305680519993235e-01  2.6649886860406857e-01  2.6998597095129201e-01  2.7351870157019892e-01 
 2.7709765750067217e-01  2.8072344359478224e-01  2.8439667261900886e-01  2.8811796535779960e-01 
 2.9188795071848450e-01  2.9570726583756235e-01  2.9957655618837858e-01  3.0349647569021193e-01 
 3.0746768681878789e-01  3.1149086071823906e-01  3.1556667731452992e-01  3.1969582543036623e-01 
 3.2387900290160782e-01  3.2811691669520254e-01  3.3241028302866882e-01  3.3675982749113553e-01 
 3.4116628516596920e-01  3.4563040075500473e-01  3.5015292870440157e-01  3.5473463333214733e-01 
 3.5937628895722901e-01  3.6407868003049476e-01  3.6884260126722818e-01  3.7366885778145675e-01 
 3.7855826522201852e-01  3.8351164991040798e-01  3.8852984898042719e-01  3.9361371051966276e-01 
 3.9876409371281479e-01  4.0398186898690147e-01  4.0926791815836361e-01  4.1462313458209094e-01 
 4.2004842330240588e-01  4.2554470120601479e-01  4.3111289717696510e-01  4.3675395225362867e-01 
 4.4246881978773972e-01  4.4825846560551358e-01  4.5412386817087330e-01  4.6006601875081254e-01 
 4.6608592158292239e-01  4.7218459404510932e-01  4.7836306682753482e-01  4.8462238410680458e-01 
 4.9096360372243658e-01  4.9738779735563854e-01  5.0389605071042465e-01  5.1048946369710224e-01 
 5.1716915061815971e-01  5.2393624035658348e-01  5.3079187656664639e-01  5.3773721786718498e-01 
 5.4477343803740996e-01  5.5190172621527667e-01  5.5912328709845316e-01  5.6643934114791694e-01 
 5.7385112479421496e-01  5.8135989064642457e-01  5.8896690770384608e-01  5.9667346157046786e-01 
 6.0448085467223545e-01  6.1239040647716581e-01  6.2040345371833894e-01  6.2852135061981096e-01 
 6.3674546912547914e-01  6.4507719913094541e-01  6.5351794871841218e-01  6.6206914439464715e-01 
 6.7073223133207338e-01  6.7950867361300227e-01  6.8839995447706825e-01  6.9740757657189922e-01 
 7.0653306220706846e-01  7.1577795361136753e-01  7.2514381319344789e-01  7.3463222380587023e-01 
 7.4424478901261171e-01  7.5398313336007083e-01  7.6384890265162064e-01  7.7384376422575274e-01 
 7.8396940723786201e-01  7.9422754294571762e-01  8.0461990499866931e-01  8.1514824973063915e-01 
 8.2581435645694645e-01  8.3662002777501177e-01  8.4756708986900753e-01  8.5865739281848286e-01 
 8.6989281091103221e-01  8.8127524295905446e-01  8.9280661262065730e-01  9.0448886872475898e-01 
 9.1632398560044614e-01  9.2831396341063954e-01  9.4046082849012635e-01  9.5276663368801584e-01 
 9.6523345871467536e-01  9.7786341049320658e-01  9.9065862351552070e-01  1.0036212602030723e+00 
 1.0167535112723138e+00  1.0300575961049323e+00  1.0435357631229309e+00  1.0571902901686114e+00 
 1.0710234848895461e+00  1.0850376851285661e+00  1.0992352593188677e+00  1.1136186068842802e+00 
 1.1281901586447765e+00  1.1429523772272854e+00  1.1579077574818828e+00  1.1730588269034272e+00 
 1.1884081460587117e+00  1.2039583090192065e+00  1.2197119437994630e+00  1.2356717128012538e+00 
 1.2518403132635263e+00  1.2682204777182413e+00  1.2848149744521782e+00  1.3016266079747814e+00 
 1.3186582194921319e+00  1.3359126873871086e+00  1.3533929277058550e+00  1.3711018946505897e+00 
 1.3890425810788753e+00  1.4072180190094195e+00  1.4256312801344910e+00  1.4442854763390456e+00 
 1.4631837602266407e+00  1.4823293256522327e+00  1.5017254082619476e+00  1.5213752860399101e+00 
 1.5412822798622339e+00  1.5614497540582555e+00  1.5818811169791143e+00  1.6025798215737723e+00 
 1.6235493659725717e+00  1.6447932940784249e+00  1.6663151961657474e+00  1.6881187094872105e+00 
 1.7102075188884627e+00  1.7325853574308663e+00  1.7552560070223966e+00  1.7782232990567928e+00 
 1.8014911150610728e+00  1.8250633873515216e+00  1.8489440996982600e+00  1.8731372879985135e+00 
 1.8976470409586865e+00  1.9224775007853649e+00  1.9476328638853586e+00  1.9731173815749037e+00 
 1.9989353607981450e+00  2.0250911648550209e+00  2.0515892141386698e+00  2.0784339868824895e+00 
 2.1056300199169695e+00  2.1331819094364151e+00  2.1610943117757349e+00  2.1893719441973580e+00 
 2.2180195856884679e+00  2.2470420777686604e+00  2.2764443253081730e+00  2.3062312973568204e+00 
 2.3364080279837744e+00  2.3669796171283353e+00  2.3979512314618314e+00  2.4293281052608000e+00 
 2.4611155412915942e+00  2.4933189117065591e+00  2.5259436589519431e+00  2.5589952966876797e+00 
 2.5924794107192137e+00  2.6264016599415103e+00  2.6607677772954319e+00  2.6955835707365967e+00 
 2.7308549242169655e+00  2.7665877986792262e+00  2.8027882330642098e+00  2.8394623453314889e+00 
 2.8766163334933235e+00  2.9142564766621435e+00  2.9523891361117323e+00  2.9910207563522957e+00 
 3.0301578662196014e+00  3.0698070799783670e+00  3.1099750984400867e+00  3.1506687100954842e+00 
 3.1918947922617842e+00  3.2336603122449952e+00  3.2759723285173998e+00  3.3188379919104545e+00 
 3.3622645468233037e+00  3.4062593324470751e+00  3.4508297840052569e+00  3.4959834340102440e+00 
 3.5417279135363580e+00  3.5880709535095145e+00  3.6350203860137702e+00  3.6825841456149622e+00 
 3.7307702707016697e+00  3.7795869048437201e+00  3.8290422981684715e+00  3.8791448087551044e+00 
 3.9299029040471569e+00  3.9813251622835426e+00  4.0334202739482929e+00  4.0861970432392711e+00 
 4.1396643895561009e+00  4.1938313490075672e+00  4.2487070759387473e+00  4.3043008444780879e+00 
 4.3606220501047979e+00  4.4176802112366786e+00  4.4754849708387630e+00  4.5340460980530075e+00 
 4.5933734898492906e+00  4.6534771726980324e+00  4.7143673042646848e+00  4.7760541751264096e+00 
 4.8385482105112008e+00  4.9018599720597811e+00  4.9660001596105401e+00  5.0309796130078350e+00 
 5.0968093139339459e+00  5.1635003877650112e+00  5.2310641054512397e+00  5.2995118854217269e+00 
 5.3688552955142113e+00  5.4391060549300239e+00  5.5102760362147167e+00  5.5823772672645209e+00 
 5.6554219333590900e+00  5.7294223792208490e+00  5.8043911111012756e+00  5.8803407988944905e+00 
 5.9572842782784985e+00  6.0352345528844484e+00  6.1142047964942776e+00  6.1942083552671141e+00 
 6.2752587499948049e+00  6.3573696783869682e+00  6.4405550173859334e+00  6.5248288255119808e+00 
 6.6102053452392644e+00  6.6966990054028210e+00  6.7843244236370941e+00  6.8730964088462994e+00 
 6.9630299637072328e+00  7.0541402872047181e+00  7.1464427772002761e+00  7.2399530330344080e+00 
 7.3346868581629101e+00  7.4306602628277068e+00  7.5278894667626108e+00  7.6263909019345029e+00 
 7.7261812153203708e+00  7.8272772717206864e+00  7.9296961566095998e+00  8.0334551790224236e+00 
 8.1385718744809044e+00  8.2450640079567599e+00  8.3529495768740087e+00  8.4622468141505784e+00 
 8.5729741912797213e+00  8.6851504214516826e+00  8.7987944627163674e+00  8.9139255211872328e+00 
 9.0305630542871853e+00  9.1487267740369251e+00  9.2684366503863309e+00  9.3897129145894294e+00 
 9.5125760626235198e+00  9.6370468586530436e+00  9.7631463385387818e+00  9.8908958133929676e+00 
 1.0020316873180905e+01  1.0151431390369734e+01  1.0284261523624924e+01  1.0418829721555145e+01 
 1.0555158726506129e+01  1.0693271578404191e+01  1.0833191618650048e+01  1.0974942494063479e+01 
 1.1118548160879831e+01  1.1264032888798592e+01  1.1411421265085050e+01  1.1560738198725591e+01 
 1.1712008924637393e+01  1.1865259007933174e+01  1.2020514348241758e+01  1.2177801184085183e+01 
 1.2337146097313063e+01  1.2498576017594992e+01  1.2662118226971712e+01  1.2827800364465856e+01 
 1.2995650430753004e+01  1.3165696792893852e+01  1.3337968189128331e+01  1.3512493733732429e+01 
 1.3689302921938593e+01  1.3868425634920406e+01  1.4049892144842715e+01  1.4233733119977606e+01 
 1.4419979629887433e+01  1.4608663150675659e+01  1.4799815570306379e+01  1.4993469193993477e+01 
 1.5189656749660264e+01  1.5388411393470596e+01  1.5589766715432335e+01  1.5793756745074132e+01 
 1.6000415957196516e+01  1.6209779277698207e+01  1.6421882089478668e+01  1.6636760238417921e+01 
 1.6854450039434564e+01  1.7074988282623124e+01  1.7298412239471542e+01  1.7524759669160325e+01 
 1.7754068824943818e+01  1.7986378460615132e+01  1.8221727837055603e+01  1.8460156728870018e+01 
 1.8701705431108568e+01  1.8946414766076845e+01  1.9194326090234888e+01  1.9445481301186536e+01 
 1.9699922844760209e+01  1.9957693722182366e+01  2.0218837497344815e+01  2.0483398304167107e+01 
 2.0751420854055272e+01  2.1022950443458161e+01  2.1298032961522651e+01  2.1576714897849055e+01 
 2.1859043350347822e+01  2.2145066033199445e+01  2.2434831284918069e+01  2.2728388076520918e+01 
 2.3025786019804457e+01  2.3327075375728946e+01  2.3632307062912627e+01  2.3941532666237119e+01 
 2.4254804445565366e+01  2.4572175344573694e+01  2.4893698999699414e+01  2.5219429749205492e+01 
 2.5549422642363869e+01  2.5883733448758900e+01  2.6222418667712567e+01  2.6565535537832965e+01 
 2.6913142046687803e+01  2.7265296940604461e+01  2.7622059734598075e+01  2.7983490722430016e+01 
 2.8349650986797460e+01  2.8720602409656586e+01  2.9096407682680756e+01  2.9477130317855561e+01 
 2.9862834658212506e+01  3.0253585888703125e+01  3.0649450047215396e+01  3.1050494035734307e+01 
 3.1456785631648430e+01  3.1868393499204497e+01  3.2285387201111789e+01  3.2707837210298415e+01 
 3.3135814921821392e+01  3.3569392664932614e+01  3.4008643715302604e+01  3.4453642307404401e+01 
 3.4904463647059089e+01  3.5361183924146140e+01  3.5823880325479401e+01  3.6292631047851977e+01 
 3.6767515311251607e+01  3.7248613372249082e+01  3.7736006537561771e+01  3.8229777177794659e+01 
 3.8730008741361146e+01  3.9236785768586110e+01  3.9750193905993306e+01  4.0270319920779912e+01 
 4.0797251715480392e+01  4.1331078342822202e+01  4.1871890020775901e+01  4.2419778147802269e+01 
 4.2974835318298787e+01  4.3537155338248439e+01  4.4106833241072827e+01  4.4683965303693483e+01 
 4.5268649062802616e+01  4.5860983331347136e+01  4.6461068215228231e+01  4.7069005130219530e+01 