  <PP_INFO>

############################################################
#    Opium Parameter File                                  #
############################################################
#-----------------------------------------------------------
#Command line   : /home/gwang18/github/cody-updated-opium/opium-modified/opium W W.log ae ps nl tc2 ke upf qmcpack rpt 
 
#Opium version  : 4.1 
#Compile Host   : gwang18-p3 
#Compile OS     : Linux 5.4.0-53-generic x86_64 
#Compile Date   : Sat Nov 21 08:15:36 EST 2020 
#-----------------------------------------------------------
#Execution Host : gwang18-p3 
#Execution Date : Thu Dec  2 15:41:09 2021
 
#-----------------------------------------------------------
############################################################
[Atom]
W
16
100  2.00 -
200  2.00 -
210  6.00 -
300  2.00 -
310  6.00 -
320 10.00 -
400  2.00 -
410  6.00 -
420 10.00 -
430 14.00 -
500  2.00 -
510  6.00 -
520  3.00 -
600  1.00 -
610  0.50 -
530  0.50 -

[Pseudo]
6 -1 -1 -1 -1 -1 -1
g

[Relativity]
nrl

[XC]
pbe

[KBDesign]
p

[Gaussinfo]
14 5
2 3 3 2 4
2  11.273956  420.479803
2  8.4109240  39.584943
2  8.5178240  320.877235
2  1.6080910 -0.472821
4  10.073490  0.112929
2  6.0592860  158.077959
2  1.1048530 -0.283299
4  6.2624770 -0.45949
2  2.0753420  7.745405
2  1.8459470  6.916005
1  10.188960  14.0
3  9.4782400  142.6454400
2  10.146880 -100.078727
2  5.4916510 -0.941578

[Configs]
9

500  2.00 -
510  6.00 -
520  4.00 -
600  1.00 -
610  0.00 -
530  0.00 -

500  2.00 -
510  6.00 -
520  4.00 -
600  0.00 -
610  0.00 -
530  0.00 -

500  2.00 -
510  6.00 -
520  4.00 -
600  0.00 -
610  0.00 -
530  1.00 -

500  2.00 -
510  6.00 -
520  3.00 -
600  1.00 -
610  0.00 -
530  0.00 -

500  2.00 -
510  6.00 -
520  4.00 -
600  0.00 -
610  0.00 -
530  0.00 -

500  2.00 -
510  6.00 -
520  3.00 -
600  0.00 -
610  0.00 -
530  0.00 -

500  2.00 -
510  6.00 -
520  2.00 -
600  0.00 -
610  0.00 -
530  0.00 -

500  2.00 -
510  6.00 -
520  1.00 -
600  0.00 -
610  0.00 -
530  0.00 -

500  2.00 -
510  6.00 -
520  0.00 -
600  0.00 -
610  0.00 -
530  0.00 -

############################################################
  </PP_INFO>



<PP_HEADER>
   0         Version Number
   W        Element
   NC        Norm - Conserving pseudopotential
    F      Nonlinear Core Correction
SLA  PW   PBE  PBE     PBE  Exchange-Correlation functional
 14          Z valence
 0          Total energy
 0.000000   0.000000     Suggested cutoff for wfc and rho
 3           Max angular momentum component
 1187           Number of points in mesh
 4  3     Number of Wavefuncitons, Number of Projectors
 Wavefunctions         nl  l   occ
                       S  0  2.000000
                       P  1  6.000000
                       D  2  3.000000
                       F  3  0.500000
</PP_HEADER>
<PP_MESH>
  <PP_R>
 2.3818958080238589e-05  2.4130625987367364e-05  2.4446372027721227e-05  2.4766249563132505e-05 
 2.5090312653666024e-05  2.5418616066755403e-05  2.5751215286458814e-05  2.6088166522836012e-05 
 2.6429526721447929e-05  2.6775353572980610e-05  2.7125705522995049e-05  2.7480641781804679e-05 
 2.7840222334482020e-05  2.8204507950996311e-05  2.8573560196483801e-05  2.8947441441652312e-05 
 2.9326214873322176e-05  2.9709944505104854e-05  3.0098695188221441e-05  3.0492532622462640e-05 
 3.0891523367292212e-05  3.1295734853095676e-05  3.1705235392576181e-05  3.2120094192299594e-05 
 3.2540381364390408e-05  3.2966167938381059e-05  3.3397525873215964e-05  3.3834528069412784e-05 
 3.4277248381382794e-05  3.4725761629912415e-05  3.5180143614808161e-05  3.5640471127706967e-05 
 3.6106821965054143e-05  3.6579274941251118e-05  3.7057909901975374e-05  3.7542807737674477e-05 
 3.8034050397236767e-05  3.8531720901840902e-05  3.9035903358986669e-05  3.9546682976709337e-05 
 4.0064146077979995e-05  4.0588380115294416e-05  4.1119473685452554e-05  4.1657516544531857e-05 
 4.2202599623056110e-05  4.2754815041362930e-05  4.3314256125172333e-05  4.3881017421359008e-05 
 4.4455194713930960e-05  4.5036885040217268e-05  4.5626186707267485e-05  4.6223199308465959e-05 
 4.6828023740363258e-05  4.7440762219727900e-05  4.8061518300821274e-05  4.8690396892898561e-05 
 4.9327504277938597e-05  4.9972948128605841e-05  5.0626837526447269e-05  5.1289282980327474e-05 
 5.1960396445104776e-05  5.2640291340552063e-05  5.3329082570524891e-05  5.4026886542380517e-05 
 5.4733821186651020e-05  5.5450005976973852e-05  5.6175561950283178e-05  5.6910611727265423e-05 
 5.7655279533082278e-05  5.8409691218365378e-05  5.9173974280485083e-05  5.9948257885097997e-05 
 6.0732672887976120e-05  6.1527351857121966e-05  6.2332429095172709e-05  6.3148040662097739e-05 
 6.3974324398193130e-05  6.4811419947376867e-05  6.5659468780789241e-05  6.6518614220701389e-05 
 6.7389001464737580e-05  6.8270777610413650e-05  6.9164091679996931e-05  7.0069094645691359e-05 
 7.0985939455152139e-05  7.1914781057334304e-05  7.2855776428679250e-05  7.3809084599644413e-05 
 7.4774866681579693e-05  7.5753285893955555e-05  7.6744507591947663e-05  7.7748699294382154e-05 
 7.8766030712046836e-05  7.9796673776372606e-05  8.0840802668490395e-05  8.1898593848668083e-05 
 8.2970226086132861e-05  8.4055880489283271e-05  8.5155740536297506e-05  8.6269992106141282e-05 
 8.7398823509981919e-05  8.8542425523013385e-05  8.9700991416697787e-05  9.0874716991428737e-05 
 9.2063800609621760e-05  9.3268443229238578e-05  9.4488848437749047e-05  9.5725222486538086e-05 
 9.6977774325762652e-05  9.8246715639664750e-05  9.9532260882346645e-05  1.0083462731401405e-04 
 1.0215403503769372e-04  1.0349070703643122e-04  1.0484486921097587e-04  1.0621675041795803e-04 
 1.0760658250856696e-04  1.0901460036773389e-04  1.1044104195382829e-04  1.1188614833887323e-04 
 1.1335016374928731e-04  1.1483333560715948e-04  1.1633591457206361e-04  1.1785815458342113e-04 
 1.1940031290341706e-04  1.2096265016047797e-04  1.2254543039331880e-04  1.2414892109556612e-04 
 1.2577339326096500e-04  1.2741912142917781e-04  1.2908638373218201e-04  1.3077546194127505e-04 
 1.3248664151469447e-04  1.3422021164586083e-04  1.3597646531225243e-04  1.3775569932491892e-04 
 1.3955821437864322e-04  1.4138431510275957e-04  1.4323431011263661e-04  1.4510851206183436e-04 
 1.4700723769494272e-04  1.4893080790111298e-04  1.5087954776828822e-04  1.5285378663814427e-04 
 1.5485385816174893e-04  1.5688010035595009e-04  1.5893285566050122e-04  1.6101247099593456e-04 
 1.6311929782219148e-04  1.6525369219802006e-04  1.6741601484115002e-04  1.6960663118925428e-04 
 1.7182591146170973e-04  1.7407423072216449e-04  1.7635196894192482e-04  1.7865951106417122e-04 
 1.8099724706901424e-04  1.8336557203940288e-04  1.8576488622789399e-04  1.8819559512429598e-04 
 1.9065810952419775e-04  1.9315284559839381e-04  1.9568022496321846e-04  1.9824067475179979e-04 
 2.0083462768624613e-04  2.0346252215077730e-04  2.0612480226581245e-04  2.0882191796302746e-04 
 2.1155432506139463e-04  2.1432248534421710e-04  2.1712686663717077e-04  2.1996794288736907e-04 
 2.2284619424346036e-04  2.2576210713677448e-04  2.2871617436353019e-04  2.3170889516811995e-04 
 2.3474077532748271e-04  2.3781232723658156e-04  2.4092406999499970e-04  2.4407652949466965e-04 
 2.4727023850874992e-04  2.5050573678166523e-04  2.5378357112032469e-04  2.5710429548653284e-04 
 2.6046847109061126e-04  2.6387666648624420e-04  2.6732945766656525e-04  2.7082742816150209e-04 
 2.7437116913639356e-04  2.7796127949189899e-04  2.8159836596521330e-04  2.8528304323260722e-04 
 2.8901593401330859e-04  2.9279766917474401e-04  2.9662888783915680e-04  3.0051023749161983e-04 
 3.0444237408946257e-04  3.0842596217312853e-04  3.1246167497848542e-04  3.1655019455060265e-04 
 3.2069221185901918e-04  3.2488842691451823e-04  3.2913954888743170e-04  3.3344629622749115e-04 
 3.3780939678524751e-04  3.4222958793507974e-04  3.4670761669981234e-04  3.5124423987696488e-04 
 3.5584022416665194e-04  3.6049634630115743e-04  3.6521339317620392e-04  3.6999216198394029e-04 
 3.7483346034766914e-04  3.7973810645833668e-04  3.8470692921280925e-04  3.8974076835395828e-04 
 3.9484047461257990e-04  4.0000690985116956e-04  4.0524094720957940e-04  4.1054347125258012e-04 
 4.1591537811935570e-04  4.2135757567495229e-04  4.2687098366370977e-04  4.3245653386470083e-04 
 4.3811517024920323e-04  4.4384784914023424e-04  4.4965553937417068e-04  4.5553922246448529e-04 
 4.6149989276762370e-04  4.6753855765105417e-04  4.7365623766351455e-04  4.7985396670748785e-04 
 4.8613279221393384e-04  4.9249377531930679e-04  4.9893799104489152e-04  5.0546652847848351e-04 
 5.1208049095844788e-04  5.1878099626018507e-04  5.2556917678503912e-04  5.3244617975167535e-04 
 5.3941316738996309e-04  5.4647131713739553e-04  5.5362182183807851e-04  5.6086588994432550e-04 
 5.6820474572088836e-04  5.7563962945186039e-04  5.8317179765028768e-04  5.9080252327052313e-04 
 5.9853309592335839e-04  6.0636482209397143e-04  6.1429902536272560e-04  6.2233704662885674e-04 
 6.3048024433709070e-04  6.3872999470722153e-04  6.4708769196669734e-04  6.5555474858624663e-04 
 6.6413259551859061e-04  6.7282268244027704e-04  6.8162647799667898e-04  6.9054547005019970e-04 
 6.9958116593172345e-04  7.0873509269536066e-04  7.1800879737652149e-04  7.2740384725336962e-04 
 7.3692183011169474e-04  7.4656435451325406e-04  7.5633305006762136e-04  7.6622956770759610e-04 
 7.7625557996821408e-04  7.8641278126940985e-04  7.9670288820237855e-04  8.0712763981968349e-04 
 8.1768879792916025e-04  8.2838814739166495e-04  8.3922749642272281e-04  8.5020867689811880e-04 
 8.6133354466348937e-04  8.7260397984796568e-04  8.8402188718191791e-04  8.9558919631886147e-04 
 9.0730786216157173e-04  9.1917986519246824e-04  9.3120721180831880e-04  9.4339193465932825e-04 
 9.5573609299265914e-04  9.6824177300045022e-04  9.8091108817238790e-04  9.9374617965288957e-04 
 1.0067492166029647e-03  1.0199223965668060e-03  1.0332679458431818e-03  1.0467881198616823e-03 
 1.0604852035638963e-03  1.0743615117895699e-03  1.0884193896678203e-03  1.1026612130134686e-03 
 1.1170893887285560e-03  1.1317063552091194e-03  1.1465145827572836e-03  1.1615165739987500e-03 
 1.1767148643057437e-03  1.1921120222254998e-03  1.2077106499143544e-03  1.2235133835775125e-03 
 1.2395228939145759e-03  1.2557418865708947e-03  1.2721731025948314e-03  1.2888193189010016e-03 
 1.3056833487395806e-03  1.3227680421717494e-03  1.3400762865513622e-03  1.3576110070129121e-03 
 1.3753751669658928e-03  1.3933717685956169e-03  1.4116038533705931e-03  1.4300745025565425e-03 
 1.4487868377371399e-03  1.4677440213415676e-03  1.4869492571789747e-03  1.5064057909799295e-03 
 1.5261169109449502e-03  1.5460859483002263e-03  1.5663162778605994e-03  1.5868113185999154e-03 
 1.6075745342288388e-03  1.6286094337802301e-03  1.6499195722021781e-03  1.6715085509587965e-03 
 1.6933800186388806e-03  1.7155376715725214e-03  1.7379852544558033e-03  1.7607265609836617e-03 
 1.7837654344910255e-03  1.8071057686023528e-03  1.8307515078896603e-03  1.8547066485391671e-03 
 1.8789752390266578e-03  1.9035613808016890e-03  1.9284692289807340e-03  1.9537029930494203e-03 
 1.9792669375739338e-03  2.0051653829217440e-03  2.0314027059917562e-03  2.0579833409540152e-03 
 2.0849117799990953e-03  2.1121925740972868e-03  2.1398303337677254e-03  2.1678297298575720e-03 
 2.1961954943314089e-03  2.2249324210709457e-03  2.2540453666851979e-03  2.2835392513312659e-03 
 2.3134190595458532e-03  2.3436898410876652e-03  2.3743567117908292e-03  2.4054248544294866e-03 
 2.4368995195936842e-03  2.4687860265767501e-03  2.5010897642742573e-03  2.5338161920947615e-03 
 2.5669708408824583e-03  2.6005593138519029e-03  2.6345872875349710e-03  2.6690605127402053e-03 
 2.7039848155247168e-03  2.7393660981787958e-03  2.7752103402234230e-03  2.8115235994208170e-03 
 2.8483120127982113e-03  2.8855817976850264e-03  2.9233392527636144e-03  2.9615907591337498e-03 
 3.0003427813910508e-03  3.0396018687195163e-03  3.0793746559983392e-03  3.1196678649232350e-03 
 3.1604883051424139e-03  3.2018428754074305e-03  3.2437385647390861e-03  3.2861824536085946e-03 
 3.3291817151341950e-03  3.3727436162934274e-03  3.4168755191512725e-03  3.4615848821043455e-03 
 3.5068792611414015e-03  3.5527663111203020e-03  3.5992537870617090e-03  3.6463495454597023e-03 
 3.6940615456095426e-03  3.7423978509528145e-03  3.7913666304401667e-03  3.8409761599118861e-03 
 3.8912348234965213e-03  3.9421511150278437e-03  3.9937336394803057e-03  4.0459911144233134e-03 
 4.0989323714945083e-03  4.1525663578923424e-03  4.2069021378881681e-03  4.2619488943581325e-03 
 4.3177159303350969e-03  4.3742126705808657e-03  4.4314486631790136e-03  4.4894335811485140e-03 
 4.5481772240785149e-03  4.6076895197844870e-03  4.6679805259860485e-03  4.7290604320067483e-03 
 4.7909395604960776e-03  4.8536283691740347e-03  4.9171374525984832e-03  4.9814775439556841e-03 
 5.0466595168742112e-03  5.1126943872626292e-03  5.1795933151712005e-03  5.2473676066779693e-03 
 5.3160287157995095e-03  5.3855882464266822e-03  5.4560579542857271e-03  5.5274497489249865e-03 
 5.5997756957276799e-03  5.6730480179509584e-03  5.7472790987916746e-03  5.8224814834791664e-03 
 5.8986678813954356e-03  5.9758511682230613e-03  6.0540443881212198e-03  6.1332607559301880e-03 
 6.2135136594046571e-03  6.2948166614763285e-03  6.3771835025460619e-03  6.4606281028060401e-03 
 6.5451645645923122e-03  6.6308071747681243e-03  6.7175704071384358e-03  6.8054689248960212e-03 
 6.8945175830995940e-03  6.9847314311843236e-03  7.0761257155052592e-03  7.1687158819139802e-03 
 7.2625175783689799e-03  7.3575466575802198e-03  7.4538191796882638e-03  7.5513514149784860e-03 
 7.6501598466307856e-03  7.7502611735052939e-03  7.8516723129644882e-03  7.9544104037323135e-03 
 8.0584928087906356e-03  8.1639371183136380e-03  8.2707611526405926e-03  8.3789829652875566e-03 
 8.4886208459984437e-03  8.5996933238360433e-03  8.7122191703134805e-03  8.8262174025666197e-03 
 8.9417072865680403e-03  9.0587083403830225e-03  9.1772403374681313e-03  9.2973233100129889e-03 
 9.4189775523257722e-03  9.5422236242629736e-03  9.6670823547040895e-03  9.7935748450717532e-03 
 9.9217224728978797e-03  1.0051546895436586e-02  1.0183070053324273e-02  1.0316314174287664e-02 
 1.0451301776900337e-02  1.0588055674388414e-02  1.0726598978486062e-02  1.0866955103341415e-02 
 1.1009147769473647e-02  1.1153201007781747e-02  1.1299139163605859e-02  1.1446986900841666e-02 
 1.1596769206108651e-02  1.1748511392972900e-02  1.1902239106225157e-02  1.2057978326214846e-02 
 1.2215755373240818e-02  1.2375596911999560e-02  1.2537529956091538e-02  1.2701581872586628e-02 
 1.2867780386649180e-02  1.3036153586223637e-02  1.3206729926781473e-02  1.3379538236130228e-02 
 1.3554607719285487e-02  1.3731967963406580e-02  1.3911648942796914e-02  1.4093681023969643e-02 
 1.4278094970779743e-02  1.4464921949623151e-02  1.4654193534703961e-02  1.4845941713370532e-02 
 1.5040198891521445e-02  1.5236997899082148e-02  1.5436371995553328e-02  1.5638354875631828e-02 
 1.5842980674905093e-02  1.6050283975620243e-02  1.6260299812528505e-02  1.6473063678806167e-02 
 1.6688611532053036e-02  1.6906979800369329e-02  1.7128205388512133e-02  1.7352325684132381e-02 
 1.7579378564093476e-02  1.7809402400872511e-02  1.8042436069045393e-02  1.8278518951856688e-02 
 1.8517690947875486e-02  1.8759992477738373e-02  1.9005464490980596e-02  1.9254148472956638e-02 
 1.9506086451851347e-02  1.9761321005782807e-02  2.0019895269998086e-02  2.0281852944163278e-02 
 2.0547238299748808e-02  2.0816096187511408e-02  2.1088472045074021e-02  2.1364411904604856e-02 
 2.1643962400596937e-02  2.1927170777749444e-02  2.2214084898952192e-02  2.2504753253374522e-02 
 2.2799224964660157e-02  2.3097549799229185e-02  2.3399778174688683e-02  2.3705961168353440e-02 
 2.4016150525878126e-02  2.4330398670002452e-02  2.4648758709410711e-02  2.4971284447707309e-02 
 2.5298030392509621e-02  2.5629051764660026e-02  2.5964404507558284e-02  2.6304145296616111e-02 
 2.6648331548835478e-02  2.6997021432512206e-02  2.7350273877066549e-02  2.7708148583002419e-02 
 2.8070706031996913e-02  2.8438007497121782e-02  2.8810115053198873e-02  2.9187091587290822e-02 
 2.9569000809329119e-02  2.9955907262881280e-02  3.0347876336058822e-02  3.0744974272568042e-02 
 3.1147268182905335e-02  3.1554826055699078e-02  3.1967716769199746e-02  3.2386010102920672e-02 
 3.2809776749430822e-02  3.3239088326302076e-02  3.3674017388212713e-02  3.4114637439209380e-02 
 3.4561022945129409e-02  3.5013249346185750e-02  3.5471393069716542e-02  3.5935531543101432e-02 
 3.6405743206847148e-02  3.6882107527844016e-02  3.7364705012796068e-02  3.7853617221826896e-02 
 3.8348926782263489e-02  3.8850717402600432e-02  3.9359073886646882e-02  3.9874082147858619e-02 
 4.0395829223857475e-02  4.0924403291141151e-02  4.1459893679985066e-02  4.2002390889539457e-02 
 4.2551986603123940e-02  4.3108773703722188e-02  4.3672846289679414e-02  4.4244299690605192e-02 
 4.4823230483484446e-02  4.5409736508998995e-02  4.6003916888063122e-02  4.6605872038575108e-02 
 4.7215703692388096e-02  4.7833514912503039e-02  4.8459410110486593e-02  4.9093495064116893e-02 
 4.9735876935260305e-02  5.0386664287982018e-02  5.1045967106893492e-02  5.1713896815740373e-02 
 5.2390566296233190e-02  5.3076089907124681e-02  5.3770583503536709e-02  5.4474164456540020e-02 
 5.5186951672990266e-02  5.5909065615623546e-02  5.6640628323414891e-02  5.7381763432203019e-02 
 5.8132596195585334e-02  5.8893253506085909e-02  5.9663863916600654e-02  6.0444557662123075e-02 
 6.1235466681754287e-02  6.2036724641001045e-02  6.2848466954365537e-02  6.3670830808230813e-02 
 6.4503955184045350e-02  6.5347980881811665e-02  6.6203050543881509e-02  6.7069308679062925e-02 
 6.7946901687042566e-02  6.8835977883127494e-02  6.9736687523310970e-02  7.0649182829665938e-02 
 7.1573618016071025e-02  7.2510149314272937e-02  7.3458935000290160e-02  7.4420135421161798e-02 
 7.5393913022046857e-02  7.6380432373677323e-02  7.7379860200171763e-02  7.8392365407211576e-02 
 7.9418119110586619e-02  8.0457294665114157e-02  8.1510067693936247e-02  8.2576616118200469e-02 
 8.3657120187128994e-02  8.4751762508481182e-02  8.5860728079414680e-02  8.6984204317750460e-02 
 8.8122381093646757e-02  8.9275450761687677e-02  9.0443608193391520e-02  9.1627050810144578e-02 
 9.2825978616565802e-02  9.4040594234308050e-02  9.5271102936301769e-02  9.6517712681445988e-02 
 9.7780634149754866e-02  9.9060080777962425e-02  1.0035626879559403e-01  1.0166941726150973e-01 
 1.0299974810092567e-01  1.0434748614292003e-01  1.0571285915842964e-01  1.0709609789874387e-01 
 1.0849743613450205e-01  1.0991711069520138e-01  1.1135536150922154e-01  1.1281243164437327e-01 
 1.1428856734897744e-01  1.1578401809348141e-01  1.1729903661262034e-01  1.1883387894812987e-01 
 1.2038880449201796e-01  1.2196407603040200e-01  1.2355995978792148e-01  1.2517672547272979e-01 
 1.2681464632207567e-01  1.2847399914848115e-01  1.3015506438652324e-01  1.3185812614022829e-01 
 1.3358347223108616e-01  1.3533139424669266e-01  1.3710218759002865e-01  1.3889615152938384e-01 
 1.4071358924893376e-01  1.4255480789997871e-01  1.4442011865285301e-01  1.4630983674951345e-01 
 1.4822428155681616e-01  1.5016377662049010e-01  1.5212864971981749e-01  1.5411923292302815e-01 
 1.5613586264342150e-01  1.5817887969622002e-01  1.6024862935616827e-01  1.6234546141588493e-01 
 1.6446973024497877e-01  1.6662179484993792e-01  1.6880201893480265e-01  1.7101077096263254e-01 
 1.7324842421777725e-01  1.7551535686896280e-01  1.7781195203320274e-01  1.8013859784054592e-01 
 1.8249568749967143e-01  1.8488361936434181e-01  1.8730279700072563e-01  1.8975362925560138e-01 
 1.9223653032545365e-01  1.9475191982647211e-01  1.9730022286546969e-01  1.9988187011172512e-01 
 2.0249729786976764e-01  2.0514694815311330e-01  2.0783126875896640e-01  2.1055071334389830e-01 
 2.1330574150051640e-01  2.1609681883513637e-01  2.1892441704647081e-01  2.2178901400534740e-01 
 2.2469109383547020e-01  2.2763114699523776e-01  2.3060967036063160e-01  2.3362716730918978e-01 
 2.3668414780507846e-01  2.3978112848527736e-01  2.4291863274689296e-01  2.4609719083561221e-01 
 2.4931733993531779e-01  2.5257962425887187e-01  2.5588459514008960e-01  2.5923281112691615e-01 
 2.6262483807582226e-01  2.6606124924743574e-01  2.6954262540342355e-01  2.7306955490464202e-01 
 2.7664263381057136e-01  2.8026246598005089e-01  2.8392966317333290e-01  2.8764484515547123e-01 
 2.9140863980106335e-01  2.9522168320036268e-01  2.9908461976677897e-01  3.0299810234578622e-01 
 3.0696279232525525e-01  3.1097935974722779e-01  3.1504848342115860e-01  3.1917085103863346e-01 
 3.2334715928959135e-01  3.2757811398006670e-01  3.3186443015147232e-01  3.3620683220144293e-01 
 3.4060605400626037e-01  3.4506283904488028e-01  3.4957794052458169e-01  3.5415212150826103e-01 
 3.5878615504339162e-01  3.6348082429267031e-01  3.6823692266637398e-01  3.7305525395644767e-01 
 3.7793663247234771e-01  3.8288188317866129e-01  3.8789184183452868e-01  3.9296735513488551e-01 
 3.9810928085356051e-01  4.0331848798823827e-01  4.0859585690732314e-01  4.1394227949872298e-01 
 4.1935865932058075e-01  4.2484591175397790e-01  4.3040496415763585e-01  4.3603675602464192e-01 
 4.4174223914122573e-01  4.4752237774761372e-01  4.5337814870098769e-01  4.5931054164057589e-01 
 4.6532055915490483e-01  4.7140921695123894e-01  4.7757754402723734e-01  4.8382658284485713e-01 
 4.9015738950653265e-01  4.9657103393365587e-01  5.0306860004740095e-01  5.0965118595190606e-01 
 5.1631990411985618e-01  5.2307588158049378e-01  5.2992026011008975e-01  5.3685419642490584e-01 
 5.4387886237668259e-01  5.5099544515068533e-01  5.5820514746634098e-01  5.6550918778050074e-01 
 5.7290880049336190e-01  5.8040523615708484e-01  5.8799976168713886e-01  5.9569366057641449e-01 
 6.0348823311213595e-01  6.1138479659561384e-01  6.1938468556487236e-01  6.2748925202018568e-01 
 6.3569986565257575e-01  6.4401791407528808e-01  6.5244480305830410e-01  6.6098195676591875e-01 
 6.6963081799742785e-01  6.7839284843096459e-01  6.8726952887052695e-01  6.9626235949623627e-01 
 7.0537286011787215e-01  7.1460257043172359e-01  7.2395305028080126e-01  7.3342587991845487e-01 
 7.4302266027543906e-01  7.5274501323047560e-01  7.6259458188435414e-01  7.7257303083761997e-01 
 7.8268204647189732e-01  7.9292333723488595e-01  8.0329863392910161e-01  8.1380969000437964e-01 
 8.2445828185421433e-01  8.3524620911597269e-01  8.4617529497503863e-01  8.5724738647293430e-01 
 8.6846435481947570e-01  8.7982809570901066e-01  8.9134052964079646e-01  9.0300360224356813e-01 
 9.1481928460435513e-01  9.2678957360159830e-01  9.3891649224262930e-01  9.5120209000556133e-01 
 9.6364844318565734e-01  9.7625765524622810e-01  9.8903185717412501e-01  1.0019732078398740e+00 
 1.0150838943625411e+00  1.0283661324793534e+00  1.0418221669201655e+00  1.0554542717868249e+00 
 1.0692647509374993e+00  1.0832559383760356e+00  1.0974301986464117e+00  1.1117899272323488e+00 
 1.1263375509621560e+00  1.1410755284188678e+00  1.1560063503557527e+00  1.1711325401172548e+00 
 1.1864566540654453e+00  1.2019812820120543e+00  1.2177090476561554e+00  1.2336426090275758e+00 
 1.2497846589361123e+00  1.2661379254266159e+00  1.2827051722400469e+00  1.2994891992805488e+00 
 1.3164928430886393e+00  1.3337189773205920e+00  1.3511705132340923e+00  1.3688504001802455e+00 
 1.3867616261020255e+00  1.4049072180392437e+00  1.4232902426401255e+00  1.4419138066795818e+00 
 1.4607810575842617e+00  1.4798951839644734e+00  1.4992594161530686e+00  1.5188770267513765e+00 
 1.5387513311822794e+00  1.5588856882505291e+00  1.5792835007103947e+00  1.5999482158407250e+00 
 1.6208833260275641e+00  1.6420923693543608e+00  1.6635789301999173e+00  1.6853466398441561e+00 
 1.7073991770818169e+00  1.7297402688441799e+00  1.7523736908289260e+00  1.7753032681382415e+00 
 1.7985328759252659e+00  1.8220664400490041e+00  1.8459079377378049e+00  1.8700613982615228e+00 
 1.8945309036124738e+00  1.9193205891953022e+00  1.9444346445258733e+00  1.9698773139393118e+00 
 1.9956528973073084e+00  2.0217657507647928e+00  2.0482202874461550e+00  2.0750209782310582e+00 
 2.1021723525000326e+00  2.1296789988999532e+00  2.1575455661195302e+00  2.1857767636749483e+00 
 2.2143773627057879e+00  2.2433521967813568e+00  2.2727061627175771e+00  2.3024442214045573e+00 
 2.3325713986449945e+00  2.3630927860035489e+00  2.3940135416673272e+00  2.4253388913176304e+00 
 2.4570741290131082e+00  2.4892246180844628e+00  2.5217957920408742e+00  2.5547931554882535e+00 
 2.5882222850595653e+00  2.6220888303572720e+00  2.6563985149081333e+00  2.6911571371305003e+00 
 2.7263705713142561e+00  2.7620447686135901e+00  2.7981857580527536e+00  2.8347996475449806e+00 
 2.8718926249247398e+00  2.9094709589934937e+00  2.9475410005791405e+00  2.9861091836093170e+00 
 3.0251820261987530e+00  3.0647661317508423e+00  3.1048681900736370e+00  3.1454949785104409e+00 
 3.1866533630852008e+00  3.2283502996628601e+00  3.2705928351249485e+00  3.3133881085605008e+00 
 3.3567433524725834e+00  3.4006658940006078e+00  3.4451631561586327e+00  3.4902426590898692e+00 
 3.5359120213376074e+00  3.5821789611327643e+00  3.6290512976982847e+00  3.6765369525706104e+00 
 3.7246439509384333e+00  3.7733804229989780e+00  3.8227546053320194e+00  3.8727748422918880e+00 
 3.9234495874176831e+00  3.9747874048619409e+00  4.0267969708380065e+00  4.0794870750863028e+00 
 4.1328666223598614e+00  4.1869446339292233e+00  4.2417302491070510e+00  4.2972327267927062e+00 
 4.3534614470370201e+00  4.4104259126275425e+00  4.4681357506945378e+00  4.5266007143379969e+00 
 4.5858306842759262e+00  4.6458356705142192e+00  4.7066258140383672e+00  4.7682113885273134e+00 
 4.8306028020897234e+00  4.8938105990229896e+00  4.9578454615952330e+00  5.0227182118506377e+00 
 5.0884398134384101e+00  5.1550213734656234e+00  5.2224741443744023e+00  5.2908095258435734e+00 
 5.3600390667152507e+00  5.4301744669466139e+00  5.5012275795872325e+00  5.5732104127822550e+00 
 5.6461351318018176e+00  5.7200140610970021e+00  5.7948596863826989e+00  5.8706846567477218e+00 
 5.9475017867925315e+00  6.0253240587949390e+00  6.1041646249041372e+00  6.1840368093634464e+00 
 6.2649541107621447e+00  6.3469302043167577e+00  6.4299789441822188e+00  6.5141143657932083e+00 
 6.5993506882362398e+00  6.6857023166526757e+00  6.7731838446732437e+00  6.8618100568843943e+00 
 6.9515959313269304e+00  7.0425566420273320e+00  7.1347075615622009e+00  7.2280642636562700e+00 
 7.3226425258143877e+00  7.4184583319879662e+00  7.5155278752763000e+00  7.6138675606632367e+00 
 7.7134940077896692e+00  7.8144240537622780e+00  7.9166747559990602e+00  8.0202633951120568e+00 
 8.1252074778278427e+00  8.2315247399461491e+00  8.3392331493373320e+00  8.4483509089789344e+00 
 8.5588964600320452e+00  8.6708884849579047e+00  8.7843459106752739e+00  8.8992879117591404e+00 
 9.0157339136812595e+00  9.1337035960931132e+00  9.2532168961518018e+00  9.3742940118894929e+00 
 9.4969554056269185e+00  9.6212218074315672e+00  9.7471142186211122e+00  9.8746539153126776e+00 
 1.0003862452018565e+01  1.0134761665289002e+01  1.0267373677402604e+01  1.0401720900105012e+01 
 1.0537826038396640e+01  1.0675712094369802e+01  1.0815402371096141e+01  1.0956920476564898e+01 
 1.1100290327672726e+01  1.1245536154265693e+01  1.1392682503234198e+01  1.1541754242661435e+01 
 1.1692776566026174e+01  1.1845774996460509e+01  1.2000775391063337e+01  1.2157803945270263e+01 
 1.2316887197280687e+01  1.2478052032542834e+01  1.2641325688297453e+01  1.2806735758180974e+01 
 1.2974310196888919e+01  1.3144077324900227e+01  1.3316065833263620e+01  1.3490304788446361e+01 
 1.3666823637246578e+01  1.3845652211769853e+01  1.4026820734470908e+01  1.4210359823261280e+01 
 1.4396300496683812e+01  1.4584674179154874e+01  1.4775512706275146e+01  1.4968848330209932e+01 
 1.5164713725139828e+01  1.5363141992782760e+01  1.5564166667988232e+01  1.5767821724404820e+01 
 1.5974141580221772e+01  1.6183161103985814e+01  1.6394915620493890e+01  1.6609440916763315e+01 
 1.6826773248079746e+01  1.7046949344124453e+01  1.7270006415181708e+01  1.7495982158427410e+01 
 1.7724914764300017e+01  1.7956842922954806e+01  1.8191805830802593e+01  1.8429843197134048e+01 
 1.8670995250830625e+01  1.8915302747163370e+01  1.9162806974680635e+01  1.9413549762185955e+01 
 1.9667573485807214e+01  1.9924921076158295e+01  2.0185636025594491e+01  2.0449762395562814e+01 
 2.0717344824048364e+01  2.0988428533118466e+01  2.1263059336565153e+01  2.1541283647647855e+01 
 2.1823148486937352e+01  2.2108701490262344e+01  2.2397990916760040e+01  2.2691065657032055e+01 
 2.2987975241407035e+01  2.3288769848311421e+01  2.3593500312749700e+01  2.3902218134895644e+01 
 2.4214975488795975e+01  2.4531825231187895e+01  2.4852820910432008e+01  2.5178016775562099e+01 
 2.5507467785453375e+01  2.5841229618110685e+01  2.6179358680078028e+01  2.6521912115971716e+01 
 2.6868947818137720e+01  2.7220524436435685e+01  2.7576701388150884e+01  2.7937538868035897e+01 
 2.8303097858483660e+01  2.8673440139833616e+01  2.9048628300812762e+01  2.9428725749113291e+01 
 2.9813796722108634e+01  3.0203906297709739e+01  3.0599120405363372e+01  3.0999505837194384e+01 
 3.1405130259293696e+01  3.1816062223154077e+01  3.2232371177255480e+01  3.2654127478802060e+01 
 3.3081402405612486e+01  3.3514268168166389e+01  3.3952797921807921e+01  3.4397065779109177e+01 
 3.4847146822395445e+01  3.5303117116434279e+01  3.5765053721290627e+01  3.6233034705350164e+01 
 3.6707139158513030e+01  3.7187447205560218e+01  3.7674040019694878e+01  3.8166999836260729e+01 
 3.8666409966640053e+01  3.9172354812333538e+01  3.9684919879224296e+01  4.0204191792028602e+01 
 4.0730258308935618e+01  4.1263208336438872e+01  4.1803131944361340e+01  4.2350120381077907e+01 
 4.2904266088936254e+01  4.3465662719879944e+01  4.4034405151275770e+01  4.4610589501948304e+01 
 4.5194313148424193e+01  4.5785674741388995e+01  4.6384774222359432e+01  4.6991712840573690e+01 
 4.7606593170102840e+01  4.8229519127186023e+01  4.8860595987792628e+01  4.9499930405414112e+01 