  <PP_INFO>

############################################################
#    Opium Parameter File                                  #
############################################################
#-----------------------------------------------------------
#Command line   : /home/gwang18/github/cody-updated-opium/opium-modified/opium I I.log ae ps nl tc2 ke upf qmcpack rpt 
 
#Opium version  : 4.1 
#Compile Host   : gwang18-p3 
#Compile OS     : Linux 5.4.0-53-generic x86_64 
#Compile Date   : Sat Nov 21 08:15:36 EST 2020 
#-----------------------------------------------------------
#Execution Host : gwang18-p3 
#Execution Date : Tue Nov 30 23:21:00 2021
 
#-----------------------------------------------------------
############################################################
[Atom]
I
14
100  2.00 -
200  2.00 -
210  6.00 -
300  2.00 -
310  6.00 -
320 10.00 -
400  2.00 -
410  6.00 -
420 10.00 -
500  2.00 -
510  4.00 -
520  1.00 -
600  0.00 -
610  0.00 -

[Pseudo]
5 -1 -1 -1 -1 -1
g

[Relativity]
nrl

[XC]
pbe

[KBDesign]
s

[Gaussinfo]
7 4
2 2 2 4
2  3.15027629678164  114.02376198253975
2  1.00807992250576  1.97414621398431
2  2.95419006710686  111.46658888340824
2  0.73082151298149  1.71024012257927
2  2.60497876641909  45.30084417121436
2  0.89959310734558  8.70429039348615
1  12.00133700643870  7.0
3  12.03588188476387  84.009359045070900
2  3.02229605770581  -3.99855926331326
2  0.97790564264594  -3.05030968819261

[Configs]
9 

500  2.00 -
510  4.00 -
520  0.00 -
600  1.00 -
610  0.00 -

500  2.00 -
510  3.00 -
520  1.00 -
600  1.00 -
610  0.00 -

500  2.00 -
510  4.00 -
520  0.00 -
600  0.00 -
610  0.00 -

500  1.00 -
510  5.00 -
520  0.00 -
600  0.00 -
610  0.00 -

500  2.00 -
510  3.00 -
520  1.00 -
600  0.00 -
610  0.00 -

500  2.00 -
510  3.00 -
520  0.00 -
600  0.00 -
610  0.00 -

500  2.00 -
510  2.00 -
520  0.00 -
600  0.00 -
610  0.00 -

500  2.00 -
510  1.00 -
520  0.00 -
600  0.00 -
610  0.00 -

500  2.00 -
510  0.00 -
520  0.00 -
600  0.00 -
610  0.00 -
############################################################
  </PP_INFO>



<PP_HEADER>
   0         Version Number
   I        Element
   NC        Norm - Conserving pseudopotential
    F      Nonlinear Core Correction
SLA  PW   PBE  PBE     PBE  Exchange-Correlation functional
 7          Z valence
 0          Total energy
 0.000000   0.000000     Suggested cutoff for wfc and rho
 2           Max angular momentum component
 1178           Number of points in mesh
 3  2     Number of Wavefuncitons, Number of Projectors
 Wavefunctions         nl  l   occ
                       S  0  2.000000
                       P  1  4.000000
                       D  2  1.000000
</PP_HEADER>
<PP_MESH>
  <PP_R>
 2.6622042768611623e-05  2.6970388667086069e-05  2.7323292625437393e-05  2.7680814285274485e-05 
 2.8043014068608812e-05  2.8409953188065843e-05  2.8781693657230065e-05  2.9158298301125582e-05 
 2.9539830766833554e-05  2.9926355534248778e-05  3.0317937926976911e-05  3.0714644123374333e-05 
 3.1116541167732424e-05  3.1523696981608234e-05  3.1936180375303426e-05  3.2354061059493205e-05 
 3.2777409657007835e-05  3.3206297714767912e-05  3.3640797715875977e-05  3.4080983091866383e-05 
 3.4526928235115346e-05  3.4978708511413482e-05  3.5436400272702750e-05  3.5900080869980199e-05 
 3.6369828666370308e-05  3.6845723050368741e-05  3.7327844449259085e-05  3.7816274342705215e-05 
 3.8311095276521671e-05  3.8812390876623963e-05  3.9320245863161654e-05  3.9834746064836204e-05 
 4.0355978433406299e-05  4.0884031058382730e-05  4.1418993181915984e-05  4.1960955213878188e-05 
 4.2510008747142670e-05  4.3066246573063356e-05  4.3629762697156718e-05  4.4200652354988961e-05 
 4.4779012028271025e-05  4.5364939461164286e-05  4.5958533676799390e-05  4.6559894994011627e-05 
 4.7169125044294907e-05  4.7786326788977754e-05  4.8411604536624015e-05  4.9045063960661273e-05 
 4.9686812117239876e-05  5.0336957463325760e-05  5.0995609875029725e-05  5.1662880666177056e-05 
 5.2338882607119632e-05  5.3023729943794411e-05  5.3717538417031290e-05  5.4420425282113593e-05 
 5.5132509328594450e-05  5.5853910900372541e-05  5.6584751916030510e-05  5.7325155889439525e-05 
 5.8075247950633220e-05  5.8835154866955280e-05  5.9605005064483212e-05  6.0384928649732718e-05 
 6.1175057431645997e-05  6.1975524943867796e-05  6.2786466467312847e-05  6.3608019053028786e-05 
 6.4440321545357871e-05  6.5283514605402336e-05  6.6137740734796181e-05  6.7003144299788422e-05 
 6.7879871555641302e-05  6.8768070671347737e-05  6.9667891754672312e-05  7.0579486877519722e-05 
 7.1503010101635453e-05  7.2438617504642444e-05  7.3386467206418700e-05  7.4346719395819658e-05 
 7.5319536357750899e-05  7.6305082500594405e-05  7.7303524383993952e-05  7.8315030747004279e-05 
 7.9339772536608205e-05  8.0377922936607219e-05  8.1429657396889674e-05  8.2495153663082681e-05 
 8.3574591806591183e-05  8.4668154255030593e-05  8.5776025823057532e-05  8.6898393743603796e-05 
 8.8035447699519309e-05  8.9187379855628924e-05  9.0354384891208744e-05  9.1536660032887339e-05 
 9.2734405087977698e-05  9.3947822478244677e-05  9.5177117274115400e-05  9.6422497229336189e-05 
 9.7684172816083609e-05  9.8962357260534733e-05  1.0025726657890287e-04  1.0156911961394492e-04 
 1.0289813807194597e-04  1.0424454656018870e-04  1.0560857262491222e-04  1.0699044678976795e-04 
 1.0839040259477876e-04  1.0980867663580776e-04  1.1124550860454346e-04  1.1270114132900841e-04 
 1.1417582081459759e-04  1.1566979628565390e-04  1.1718332022758793e-04  1.1871664842954796e-04 
 1.2027004002764966e-04  1.2184375754877038e-04  1.2343806695491678e-04  1.2505323768817310e-04 
 1.2668954271623752e-04  1.2834725857855447e-04  1.3002666543304996e-04  1.3172804710347971e-04 
 1.3345169112739542e-04  1.3519788880473959e-04  1.3696693524707580e-04  1.3875912942746337e-04 
 1.4057477423098428e-04  1.4241417650593183e-04  1.4427764711566840e-04  1.4616550099116223e-04 
 1.4807805718421177e-04  1.5001563892136539e-04  1.5197857365854847e-04  1.5396719313640357e-04 
 1.5598183343635552e-04  1.5802283503741005e-04  1.6009054287369553e-04  1.6218530639275784e-04 
 1.6430747961461705e-04  1.6645742119159883e-04  1.6863549446894679e-04  1.7084206754622877e-04 
 1.7307751333954670e-04  1.7534220964456025e-04  1.7763653920033516e-04  1.7996088975402708e-04 
 1.8231565412641173e-04  1.8470123027827264e-04  1.8711802137765757e-04  1.8956643586801413e-04 
 1.9204688753721882e-04  1.9455979558750754e-04  1.9710558470632163e-04  1.9968468513808163e-04 
 2.0229753275689867e-04  2.0494456914023931e-04  2.0762624164355256e-04  2.1034300347587409e-04 
 2.1309531377641976e-04  2.1588363769218112e-04  2.1870844645653639e-04  2.2157021746889007e-04 
 2.2446943437535454e-04  2.2740658715048739e-04  2.3038217218009839e-04  2.3339669234513969e-04 
 2.3645065710669398e-04  2.3954458259207499e-04  2.4267899168205309e-04  2.4585441409922501e-04 
 2.4907138649753690e-04  2.5233045255298114e-04  2.5563216305547748e-04  2.5897707600195947e-04 
 2.6236575669067634e-04  2.6579877781672979e-04  2.6927671956886103e-04  2.7280016972750410e-04 
 2.7636972376412187e-04  2.7998598494184245e-04  2.8364956441741197e-04  2.8736108134448142e-04 
 2.9112116297824530e-04  2.9493044478144892e-04  2.9878957053178375e-04  3.0269919243068664e-04 
 3.0665997121356354e-04  3.1067257626145588e-04  3.1473768571416719e-04  3.1885598658487065e-04 
 3.2302817487621469e-04  3.2725495569795114e-04  3.3153704338609910e-04  3.3587516162366938e-04 
 3.4027004356296958e-04  3.4472243194950746e-04  3.4923307924751757e-04  3.5380274776712904e-04 
 3.5843220979319806e-04  3.6312224771582529e-04  3.6787365416258262e-04  3.7268723213246827e-04 
 3.7756379513161602e-04  3.8250416731077947e-04  3.8750918360461526e-04  3.9257968987278953e-04 
 3.9771654304292996e-04  4.0292061125544863e-04  4.0819277401025941e-04  4.1353392231541610e-04 
 4.1894495883769493e-04  4.2442679805514686e-04  4.2998036641164712e-04  4.3560660247346565e-04 
 4.4130645708788797e-04  4.4708089354391023e-04  4.5293088773503743e-04  4.5885742832421097e-04 
 4.6486151691089636e-04  4.7094416820035512e-04  4.7710641017513234e-04  4.8334928426878879e-04 
 4.8967384554190454e-04  4.9608116286038804e-04  5.0257231907611607e-04  5.0914841120993878e-04 
 5.1581055063707848e-04  5.2255986327495469e-04  5.2939748977346747e-04  5.3632458570776909e-04 
 5.4334232177355999e-04  5.5045188398493775e-04  5.5765447387483768e-04  5.6495130869809406e-04 
 5.7234362163715940e-04  5.7983266201051429e-04  5.8741969548380699e-04  5.9510600428375193e-04 
 6.0289288741483091e-04  6.1078166087882651e-04  6.1877365789722973e-04  6.2687022913655898e-04 
 6.3507274293662388e-04  6.4338258554178006e-04  6.5180116133520521e-04  6.6032989307624596e-04 
 6.6897022214086545e-04  6.7772360876524067e-04  6.8659153229254518e-04  6.9557549142296128e-04 
 7.0467700446696479e-04  7.1389760960192256e-04  7.2323886513204886e-04  7.3270234975176044e-04 
 7.4228966281248267e-04  7.5200242459294141e-04  7.6184227657299485e-04  7.7181088171104787e-04 
 7.8190992472509414e-04  7.9214111237744026e-04  8.0250617376315071e-04  8.1300686060226980e-04 
 8.2364494753586520e-04  8.3442223242594896e-04  8.4534053665931820e-04  8.5640170545537512e-04 
 8.6760760817797343e-04  8.7896013865134347e-04  8.9046121548015558e-04  9.0211278237376782e-04 
 9.1391680847471726e-04  9.2587528869150901e-04  9.3799024403576228e-04  9.5026372196376516e-04 
 9.6269779672249949e-04  9.7529456970019428e-04  9.8805616978146337e-04  1.0009847537070947e-03 
 1.0140825064385431e-03  1.0273516415271948e-03  1.0407944014884602e-03  1.0544130581807685e-03 
 1.0682099131895145e-03  1.0821872982160325e-03  1.0963475754716598e-03  1.1106931380769547e-03 
 1.1252264104661418e-03  1.1399498487968454e-03  1.1548659413651869e-03  1.1699772090263114e-03 
 1.1852862056204202e-03  1.2007955184043749e-03  1.2165077684889495e-03  1.2324256112818050e-03 
 1.2485517369362591e-03  1.2648888708059294e-03  1.2814397739053236e-03  1.2982072433764590e-03 
 1.3151941129615834e-03  1.3324032534820873e-03  1.3498375733236787e-03  1.3675000189279055e-03 
 1.3853935752901139e-03  1.4035212664639167e-03  1.4218861560722684e-03  1.4404913478252227e-03 
 1.4593399860444683e-03  1.4784352561947258e-03  1.4977803854221003e-03  1.5173786430994723e-03 
 1.5372333413790360e-03  1.5573478357520567e-03  1.5777255256159582e-03  1.5983698548488279e-03 
 1.6192843123914421e-03  1.6404724328369037e-03  1.6619377970279979e-03  1.6836840326623639e-03 
 1.7057148149055795e-03  1.7280338670122802e-03  1.7506449609553938e-03  1.7735519180636131e-03 
 1.7967586096672105e-03  1.8202689577523007e-03  1.8440869356236677e-03  1.8682165685762601e-03 
 1.8926619345754798e-03  1.9174271649463597e-03  1.9425164450717774e-03  1.9679340150997892e-03 
 1.9936841706602267e-03  2.0197712635906667e-03  2.0461997026719045e-03  2.0729739543730468e-03 
 2.1000985436063573e-03  2.1275780544919762e-03  2.1554171311326449e-03  2.1836204783985754e-03 
 2.2121928627225835e-03  2.2411391129056246e-03  2.2704641209328751e-03  2.3001728428004870e-03 
 2.3302702993531666e-03  2.3607615771327052e-03  2.3916518292376224e-03  2.4229462761940416e-03 
 2.4546502068379839e-03  2.4867689792091867e-03  2.5193080214566269e-03  2.5522728327558894e-03 
 2.5856689842385446e-03  2.6195021199336781e-03  2.6537779577217491e-03  2.6885022903009254e-03 
 2.7236809861660560e-03  2.7593199906004728e-03  2.7954253266807491e-03  2.8320030962946182e-03 
 2.8690594811722017e-03  2.9066007439307422e-03  2.9446332291329985e-03  2.9831633643594901e-03 
 3.0221976612947784e-03  3.0617427168279456e-03  3.1018052141675006e-03  3.1423919239708465e-03 
 3.1835097054885401e-03  3.2251655077235224e-03  3.2673663706055157e-03  3.3101194261807901e-03 
 3.3534318998174931e-03  3.3973111114267603e-03  3.4417644766997850e-03  3.4867995083611041e-03 
 3.5324238174382571e-03  3.5786451145480669e-03  3.6254712111997568e-03  3.6729100211151120e-03 
 3.7209695615659172e-03  3.7696579547288936e-03  3.8189834290583737e-03  3.8689543206769112e-03 
 3.9195790747841288e-03  3.9708662470839626e-03  4.0228245052305990e-03  4.0754626302933307e-03 
 4.1287895182405771e-03  4.1828141814433256e-03  4.2375457501982391e-03  4.2929934742707097e-03 
 4.3491667244580680e-03  4.4060749941732969e-03  4.4637279010494258e-03  4.5221351885649363e-03 
 4.5813067276904342e-03  4.6412525185568643e-03  4.7019826921455600e-03  4.7635075120004032e-03 
 4.8258373759623866e-03  4.8889828179268634e-03  4.9529545096238222e-03  5.0177632624214177e-03 
 5.0834200291531243e-03  5.1499359059687900e-03  5.2173221342099096e-03  5.2855901023094419e-03 
 5.3547513477164811e-03  5.4248175588461154e-03  5.4958005770547793e-03  5.5677123986415025e-03 
 5.6405651768752924e-03  5.7143712240490625e-03  5.7891430135604540e-03  5.8648931820198579e-03 
 5.9416345313860362e-03  6.0193800311296843e-03  6.0981428204253049e-03  6.1779362103717419e-03 
 6.2587736862418173e-03  6.3406689097613546e-03  6.4236357214180464e-03  6.5076881428005337e-03 
 6.5928403789680800e-03  6.6791068208512713e-03  6.7665020476841064e-03  6.8550408294679359e-03 
 6.9447381294675987e-03  7.0356091067402910e-03  7.1276691186974526e-03  7.2209337237002158e-03 
 7.3154186836888050e-03  7.4111399668463415e-03  7.5081137502975058e-03  7.6063564228425074e-03 
 7.7058845877268399e-03  7.8067150654472428e-03  7.9088648965944426e-03  8.0123513447330312e-03 
 8.1171918993190508e-03  8.2234042786557566e-03  8.3310064328880537e-03  8.4400165470361107e-03 
 8.5504530440686701e-03  8.6623345880165927e-03  8.7756800871270774e-03  8.8905086970592507e-03 
 9.0068398241215011e-03  9.1246931285511763e-03  9.2440885278372298e-03  9.3650462000863122e-03 
 9.4875865874329262e-03  9.6117303994941884e-03  9.7374986168698250e-03  9.8649124946878913e-03 
 9.9939935661970038e-03  1.0124763646405476e-02  1.0257244835768108e-02  1.0391459523921223e-02 
 1.0527430393466555e-02  1.0665180423804687e-02  1.0804732895018605e-02  1.0946111391808098e-02 
 1.1089339807475600e-02  1.1234442347964271e-02  1.1381443535948804e-02  1.1530368214979851e-02 
 1.1681241553682621e-02  1.1834089050010448e-02  1.1988936535554003e-02  1.2145810179906895e-02 
 1.2304736495088406e-02  1.2465742340024042e-02  1.2628854925084811e-02  1.2794101816685818e-02 
 1.2961510941945044e-02  1.3131110593403108e-02  1.3302929433804771e-02  1.3476996500943007e-02 
 1.3653341212566457e-02  1.3831993371351116e-02  1.4012983169937003e-02  1.4196341196030866e-02 
 1.4382098437575522e-02  1.4570286287986916e-02  1.4760936551459667e-02  1.4954081448342075e-02 
 1.5149753620581413e-02  1.5347986137240508e-02  1.5548812500086500e-02  1.5752266649252673e-02 
 1.5958382968974488e-02  1.6167196293400556e-02  1.6378741912479702e-02  1.6593055577925044e-02 
 1.6810173509256131e-02  1.7030132399920125e-02  1.7252969423493063e-02  1.7478722239962330e-02 
 1.7707429002091178e-02  1.7939128361866778e-02  1.8173859477032393e-02  1.8411662017705173e-02 
 1.8652576173080478e-02  1.8896642658223974e-02  1.9143902720952542e-02  1.9394398148805295e-02 
 1.9648171276105755e-02  1.9905264991116407e-02  2.0165722743287019e-02  2.0429588550597615e-02 
 2.0696907006997656e-02  2.0967723289942522e-02  2.1242083168028603e-02  2.1520033008728286e-02 
 2.1801619786226207e-02  2.2086891089357987e-02  2.2375895129652785e-02  2.2668680749481290e-02 
 2.2965297430310110e-02  2.3265795301064283e-02  2.3570225146599177e-02  2.3878638416283262e-02 
 2.4191087232693170e-02  2.4507624400422531e-02  2.4828303415006102e-02  2.5153178471960549e-02 
 2.5482304475943757e-02  2.5815737050033753e-02  2.6153532545129154e-02  2.6495748049472616e-02 
 2.6842441398298882e-02  2.7193671183609075e-02  2.7549496764072860e-02  2.7909978275060268e-02 
 2.8275176638804581e-02  2.8645153574698511e-02  2.9019971609724804e-02  2.9399694089023477e-02 
 2.9784385186597311e-02  3.0174109916157398e-02  3.0568934142110617e-02  3.0968924590690877e-02 
 3.1374148861236024e-02  3.1784675437612195e-02  3.2200573699787932e-02  3.2621913935559417e-02 
 3.3048767352429315e-02  3.3481206089641044e-02  3.3919303230370429e-02  3.4363132814076963e-02 
 3.4812769849016670e-02  3.5268290324918641e-02  3.5729771225827441e-02  3.6197290543113714e-02 
 3.6670927288654828e-02  3.7150761508188072e-02  3.7636874294838620e-02  3.8129347802824391e-02 
 3.8628265261340368e-02  3.9133710988624532e-02  3.9645770406207821e-02  4.0164530053350495e-02 
 4.0690077601667644e-02  4.1222501869945805e-02  4.1761892839153526e-02  4.2308341667648415e-02 
 4.2861940706583071e-02  4.3422783515512715e-02  4.3990964878206897e-02  4.4566580818668294e-02 
 4.5149728617360788e-02  4.5740506827650323e-02  4.6339015292460567e-02  4.6945355161146576e-02 
 4.7559628906589310e-02  4.8181940342513774e-02  4.8812394641033797e-02  4.9451098350426381e-02 
 5.0098159413138631e-02  5.0753687184030109e-02  5.1417792448854388e-02  5.2090587442981839e-02 
 5.2772185870367791e-02  5.3462702922768744e-02  5.4162255299210045e-02  5.4870961225708323e-02 
 5.5588940475251945e-02  5.6316314388042993e-02  5.7053205892003842e-02  5.7799739523552586e-02 
 5.8556041448649787e-02  5.9322239484120846e-02  6.0098463119257393e-02  6.0884843537701260e-02 
 6.1681513639614806e-02  6.2488608064141415e-02  6.3306263212159861e-02  6.4134617269336128e-02 
 6.4973810229477513e-02  6.5823983918191636e-02  6.6685282016855377e-02  6.7557850086897381e-02 
 6.8441835594398301e-02  6.9337387935012873e-02  7.0244658459218123e-02  7.1163800497892157e-02 
 7.2094969388226987e-02  7.3038322499981434e-02  7.3994019262076646e-02  7.4962221189540074e-02 
 7.5943091910801869e-02  7.6936797195348502e-02  7.7943504981738174e-02  7.8963385405982828e-02 
 7.9996610830301587e-02  8.1043355872250353e-02  8.2103797434232559e-02  8.3178114733396133e-02 
 8.4266489331921740e-02  8.5369105167706710e-02  8.6486148585451728e-02  8.7617808368153111e-02 
 8.8764275769007570e-02  8.9925744543734545e-02  9.1102410983321377e-02  9.2294473947196948e-02 
 9.3502134896839367e-02  9.4725597929823477e-02  9.5965069814313825e-02  9.7220760024008951e-02 
 9.8492880773542929e-02  9.9781647054350234e-02  1.0108727667099968e-01  1.0240999027800404e-01 
 1.0375001141711106e-01  1.0510756655508263e-01  1.0648288512196837e-01  1.0787619954987911e-01 
 1.0928774531226958e-01  1.1071776096373320e-01  1.1216648818031870e-01  1.1363417180037377e-01 
 1.1512105986592343e-01  1.1662740366458967e-01  1.1815345777205971e-01  1.1969948009510993e-01 
 1.2126573191519255e-01  1.2285247793259300e-01  1.2445998631116484e-01  1.2608852872365009e-01 
 1.2773838039759253e-01  1.2940982016185187e-01  1.3110313049372643e-01  1.3281859756669259e-01 
 1.3455651129876886e-01  1.3631716540151190e-01  1.3810085742965583e-01  1.3990788883139876e-01 
 1.4173856499934856e-01  1.4359319532213469e-01  1.4547209323669597e-01  1.4737557628125192e-01 
 1.4930396614896754e-01  1.5125758874232018e-01  1.5323677422817800e-01  1.5524185709359870e-01 
 1.5727317620235889e-01  1.5933107485222262e-01  1.6141590083295976e-01  1.6352800648512314e-01 
 1.6566774875959497e-01  1.6783548927791245e-01  1.7003159439338286e-01  1.7225643525299716e-01 
 1.7451038786015616e-01  1.7679383313821515e-01  1.7910715699486088e-01  1.8145075038733113e-01 
 1.8382500938848720e-01  1.8623033525375121e-01  1.8866713448891931e-01  1.9113581891886208e-01 
 1.9363680575712389e-01  1.9617051767643293e-01  1.9873738288013415e-01  2.0133783517455631e-01 
 2.0397231404232646e-01  2.0664126471664362e-01  2.0934513825652409e-01  2.1208439162303158e-01 
 2.1485948775650515e-01  2.1767089565479555e-01  2.2051909045252935e-01  2.2340455350140648e-01 
 2.2632777245154972e-01  2.2928924133391929e-01  2.3228946064380487e-01  2.3532893742541067e-01 
 2.3840818535754696e-01  2.4152772484044324e-01  2.4468808308369688e-01  2.4788979419537299e-01 
 2.5113339927226985e-01  2.5441944649136544e-01  2.5774849120246102e-01  2.6112109602203609e-01 
 2.6453783092833244e-01  2.6799927335768126e-01  2.7150600830209221e-01  2.7505862840811629e-01 
 2.7865773407700750e-01  2.8230393356619010e-01  2.8599784309205606e-01  2.8974008693410708e-01 
 2.9353129754045937e-01  2.9737211563472898e-01  3.0126319032431520e-01  3.0520517921010176e-01 
 3.0919874849759271e-01  3.1324457310950266e-01  3.1734333679982052e-01  3.2149573226936540e-01 
 3.2570246128285474e-01  3.2996423478750420e-01  3.3428177303317957e-01  3.3865580569412052e-01 
 3.4308707199225802e-01  3.4757632082214196e-01  3.5212431087751006e-01  3.5673181077950650e-01 
 3.6139959920658082e-01  3.6612846502608709e-01  3.7091920742760398e-01  3.7577263605799965e-01 
 3.8068957115826441e-01  3.8567084370213289e-01  3.9071729553652090e-01  3.9582977952379966e-01 
 4.0100915968593098e-01  4.0625631135048990e-01  4.1157212129859638e-01  4.1695748791478371e-01 
 4.2241332133882786e-01  4.2794054361956280e-01  4.3354008887071016e-01  4.3921290342874320e-01 
 4.4495994601282496e-01  4.5078218788683055e-01  4.5668061302349428e-01  4.6265621827070297e-01 
 4.6871001351996594e-01  4.7484302187708904e-01  4.8105627983508170e-01  4.8735083744932689e-01 
 4.9372775851504319e-01  5.0018812074706842e-01  5.0673301596199594e-01  5.1336355026269465e-01 
 5.2008084422524270e-01  5.2688603308830750e-01  5.3378026694500402e-01  5.4076471093726286e-01 
 5.4784054545274341e-01  5.5500896632431795e-01  5.6227118503217632e-01  5.6962842890856513e-01 
 5.7708194134521007e-01  5.8463298200345326e-01  5.9228282702713808e-01  6.0003276925828086e-01 
 6.0788411845556445e-01  6.1583820151568991e-01  6.2389636269762605e-01  6.3205996384979179e-01 
 6.4033038464021208e-01  6.4870902278968479e-01  6.5719729430799911e-01  6.6579663373324471e-01 
 6.7450849437425164e-01  6.8333434855620323e-01  6.9227568786946392e-01  7.0133402342165641e-01 
 7.1051088609304991e-01  7.1980782679527788e-01  7.2922641673344657e-01  7.3876824767167260e-01 
 7.4843493220209489e-01  7.5822810401740715e-01  7.6814941818695437e-01  7.7820055143644518e-01 
 7.8838320243132132e-01  7.9869909206383671e-01  8.0914996374389192e-01  8.1973758369367500e-01 
 8.3046374124615718e-01  8.4133024914749388e-01  8.5233894386338394e-01  8.6349168588943614e-01 
 8.7479036006559874e-01  8.8623687589469680e-01  8.9783316786515033e-01  9.0958119577790320e-01 
 9.2148294507763351e-01  9.3354042718830055e-01  9.4575567985307885e-01  9.5813076747874248e-01 
 9.7066778148455390e-01  9.8336884065571939e-01  9.9623609150146875e-01  1.0092717086178200e+00 
 1.0224778950550921e+00  1.0358568826902246e+00  1.0494109326039716e+00  1.0631423354630281e+00 
 1.0770534119071593e+00  1.0911465129413944e+00  1.1054240203333525e+00  1.1198883470157615e+00 
 1.1345419374942585e+00  1.1493872682605117e+00  1.1644268482107536e+00  1.1796632190697920e+00 
 1.1950989558205656e+00  1.2107366671393240e+00  1.2265789958364994e+00  1.2426286193033476e+00 
 1.2588882499644347e+00  1.2753606357360414e+00  1.2920485604905694e+00  1.3089548445270207e+00 
 1.3260823450476362e+00  1.3434339566407689e+00  1.3610126117700769e+00  1.3788212812701157e+00 
 1.3968629748484198e+00  1.4151407415941395e+00  1.4336576704933606e+00  1.4524168909511390e+00 
 1.4714215733203808e+00  1.4906749294376398e+00  1.5101802131659241e+00  1.5299407209446083e+00 
 1.5499597923465391e+00  1.5702408106424306e+00  1.5907872033726460e+00  1.6116024429264588e+00 
 1.6326900471288956e+00  1.6540535798352576e+00  1.6756966515334193e+00  1.6976229199540103e+00 
 1.7198360906885803e+00  1.7423399178158530e+00  1.7651382045361770e+00  1.7882348038142646e+00 
 1.8116336190303681e+00  1.8353386046399516e+00  1.8593537668420024e+00  1.8836831642560914e+00 
 1.9083309086082878e+00  1.9333011654260510e+00  1.9585981547422151e+00  1.9842261518081838e+00 
 2.0101894878164583e+00  2.0364925506326190e+00  2.0631397855368863e+00  2.0901356959753814e+00 
 2.1174848443212211e+00  2.1451918526455702e+00  2.1732614034987807e+00  2.2016982407017549e+00 
 2.2305071701476660e+00  2.2596930606141514e+00  2.2892608445861686e+00  2.3192155190895827e+00 
 2.3495621465356806e+00  2.3803058555767285e+00  2.4114518419727267e+00  2.4430053694695073e+00 
 2.4749717706883168e+00  2.5073564480270454e+00  2.5401648745732412e+00  2.5734025950290782e+00 
 2.6070752266484218e+00  2.6411884601861604e+00  2.6757480608599549e+00  2.7107598693245740e+00 
 2.7462298026589793e+00  2.7821638553663264e+00  2.8185681003870551e+00  2.8554486901252085e+00 
 2.8928118574882373e+00  2.9306639169403539e+00  2.9690112655696965e+00  3.0078603841694549e+00 
 3.0472178383331365e+00  3.0870902795641699e+00  3.1274844464000231e+00  3.1684071655510331e+00 
 3.2098653530541368e+00  3.2518660154416970e+00  3.2944162509256221e+00  3.3375232505969836e+00 
 3.3811942996413240e+00  3.4254367785698729e+00  3.4702581644668715e+00  3.5156660322532147e+00 
 3.5616680559666407e+00  3.6082720100586334e+00  3.6554857707083621e+00  3.7033173171537506e+00 
 3.7517747330399911e+00  3.8008662077857025e+00  3.8506000379669589e+00  3.9009846287194323e+00 
 3.9520284951588800e+00  4.0037402638202195e+00  4.0561286741154339e+00  4.1092025798105531e+00 
 4.1629709505219594e+00  4.2174428732322768e+00  4.2726275538260934e+00  4.3285343186457732e+00 
 4.3851726160676350e+00  4.4425520180987466e+00  4.5006822219946292e+00  4.5595730518980790e+00 
 4.6192344604995252e+00  4.6796765307190213e+00  4.7409094774102911e+00  4.8029436490870658e+00 
 4.8657895296720071e+00  4.9294577402685134e+00  4.9939590409557111e+00  5.0593043326069349e+00 
 5.1255046587320052e+00  5.1925712073435966e+00  5.2605153128480513e+00  5.3293484579609123e+00 
 5.3990822756475341e+00  5.4697285510890774e+00  5.5412992236742387e+00  5.6138063890170287e+00 
 5.6872623010009766e+00  5.7616793738500167e+00  5.8370701842265920e+00  5.9134474733570928e+00 
 5.9908241491851673e+00  6.0692132885531960e+00  6.1486281394123052e+00  6.2290821230613052e+00 
 6.3105888364149205e+00  6.3931620543017020e+00  6.4768157317920032e+00  6.5615640065564262e+00 
 6.6474212012551144e+00  6.7344018259583196e+00  6.8225205805986411e+00  6.9117923574553410e+00 
 7.0022322436711866e+00  7.0938555238022021e+00  7.1866776824008154e+00  7.2807144066327307e+00 
 7.3759815889281706e+00  7.4724953296676890e+00  7.5702719399031837e+00  7.6693279441145021e+00 
 7.7696800830021173e+00  7.8713453163163498e+00  7.9743408257236030e+00  8.0786840177101062e+00 
 8.1843925265236539e+00  8.2914842171538279e+00  8.3999771883512349e+00  8.5098897756862328e+00 
 8.6212405546476827e+00  8.7340483437822538e+00  8.8483322078748046e+00  8.9641114611703738e+00 
 9.0814056706383486e+00  9.2002346592792694e+00  9.3206185094750573e+00  9.4425775663829175e+00 
 9.5661324413737479e+00  9.6913040155154899e+00  9.8181134431020940e+00  9.9465821552286435e+00 
 1.0076731863413254e+01  1.0208584563266379e+01  1.0342162538208113e+01  1.0477488363234153e+01 
 1.0614584908731013e+01  1.0753475344341192e+01  1.0894183142878873e+01  1.1036732084296910e+01 
 1.1181146259705685e+01  1.1327450075444558e+01  1.1475668257206630e+01  1.1625825854217348e+01 
 1.1777948243468021e+01  1.1932061134004496e+01  1.2088190571272079e+01  1.2246362941517267e+01 
 1.2406604976247102e+01  1.2568943756746844e+01  1.2733406718656777e+01  1.2900021656608901e+01 
 1.3068816728924293e+01  1.3239820462371922e+01  1.3413061756989743e+01  1.3588569890968881e+01 
 1.3766374525601703e+01  1.3946505710294659e+01  1.4128993887646683e+01  1.4313869898594092e+01 
 1.4501164987622785e+01  1.4690910808048537e+01  1.4883139427366636e+01  1.5077883332671274e+01 
 1.5275175436145952e+01  1.5475049080625736e+01  1.5677538045232259e+01  1.5882676551082485e+01 
 1.6090499267072147e+01  1.6301041315734892e+01  1.6514338279178048e+01  1.6730426205096112e+01 
 1.6949341612862867e+01  1.7171121499703272e+01  1.7395803346946053e+01  1.7623425126358164e+01 
 1.7854025306562090e+01  1.8087642859537159e+01  1.8324317267205799e+01  1.8564088528106247e+01 
 1.8806997164152271e+01  1.9053084227481509e+01  1.9302391307393375e+01  1.9554960537377749e+01 
 1.9810834602235634e+01  2.0070056745293005e+01  2.0332670775709005e+01  2.0598721075879819e+01 
 2.0868252608939411e+01  2.1141310926358376e+01  2.1417942175642256e+01  2.1698193108130596e+01 
 2.1982111086898009e+01  2.2269744094758654e+01  2.2561140742375464e+01  2.2856350276475471e+01 
 2.3155422588172485e+01  2.3458408221399051e+01  2.3765358381448316e+01  2.4076324943627888e+01 
 2.4391360462026924e+01  2.4710518178397834e+01  2.5033852031154325e+01  2.5361416664487063e+01 
 2.5693267437598728e+01  2.6029460434059807e+01  2.6370052471286879e+01  2.6715101110144872e+01 
 2.7064664664675007e+01  2.7418802211949988e+01  2.7777573602058194e+01  2.8141039468218459e+01 
 2.8509261237027250e+01  2.8882301138839946e+01  2.9260222218287730e+01  2.9643088344932561e+01 
 3.0030964224061108e+01  3.0423915407620118e+01  3.0822008305294879e+01  3.1225310195732597e+01 
 3.1633889237912651e+01  3.2047814482665629e+01  3.2467155884343079e+01  3.2891984312639948e+01 
 3.3322371564571760e+01  3.3758390376608460e+01  3.4200114436967034e+01  3.4647618398065035e+01 
 3.5100977889136999e+01  3.5560269529015947e+01  3.6025570939082179e+01  3.6496960756381526e+01 
 3.6974518646914937e+01  3.7458325319102606e+01  3.7948462537423637e+01  3.8445013136234515e+01 
 3.8948061033768262e+01  3.9457691246316863e+01  3.9973989902599222e+01  4.0497044258317075e+01 
 4.1026942710901466e+01  4.1563774814452096e+01  4.2107631294872178e+01  4.2658604065201331e+01 
 4.3216786241149094e+01  4.3782272156831752e+01  4.4355157380714957e+01  4.4935538731765071e+01 
 4.5523514295811779e+01  4.6119183442124928e+01  4.6722646840207837e+01  4.7334006476811155e+01 
 4.7953365673168570e+01  4.8580829102458409e+01  4.9216502807493626e+01  4.9860494218643353e+01 
 5.0512912171988823e+01  5.1173866927716979e+01  5.1843470188754679e+01  5.2521835119646752e+01 
 5.3209076365681085e+01  5.3905310072263973e+01  5.4610653904548926e+01  5.5325227067322388e+01 
 5.6049150325149625e+01  5.6782546022784203e+01  5.7525538105844589e+01  5.8278252141761307e+01 