  <PP_INFO>

############################################################
#    Opium Parameter File                                  #
############################################################
#-----------------------------------------------------------
#Command line   : ../../opium-modified/opium Gd Gd.log ae ps nl tc2 ke upf qmcpack rpt 
 
#Opium version  : 4.1 
#Compile Host   : login26 
#Compile OS     : Linux 5.14.21-150400.24.81_12.0.86-cray_shasta_c x86_64 
#Compile Date   : Mon Nov 20 09:17:44 PST 2023 
#-----------------------------------------------------------
#Execution Host : login32 
#Execution Date : Mon Nov 20 13:57:33 2023
 
#-----------------------------------------------------------
############################################################
[Atom]
Gd
15            
100   2.00 -
200   2.00 -
210   6.00 -
300   2.00 -
310   6.00 -
320  10.00 -
400   2.00 -
410   6.00 -
420  10.00 -
500   2.00 -
510   6.00 -
520   1.00 -
430   7.00 -
600   0.50 -
610   0.50 -

[Pseudo]
6 1.176092 1.288137 1.877981 0.553329 3.242022 3.2
g

[Gaussinfo]
18 5 3
2 2 2 2 4  1 1 1
2   11.95874295  158.75157318789057
2   4.57502029   75.33862826274655
2   9.32702741   85.29970272818532
2   3.72730927   55.148895643005105
2   9.14239802   55.31511392504553
2   2.41026285   27.587515239861645
2   3.49609108   -24.9529154751256
2   6.1622991   -2.920504453945625
1   4.482334567  18
3   4.564889708  82.168014744
2   5.66712002  -92.94902558036668
2   3.16146066  -4.588504296630954
4   2.00299880   2.78285960
4   4.11485964  -0.32245798
4   4.96590544   0.23125870


[KBdesign]
s

[Relativity]
frl

[XC]
pbe

[Configs]
8
500   2.00 -
510   6.00 -
520   1.00 -
430   7.00 -
600   2.00 -
610   0.00 -

500   2.00 -
510   6.00 -
520   0.00 -
430   7.00 -
600   2.00 -
610   1.00 -

500   2.00 -
510   6.00 -
520   1.00 -
430   7.00 -
600   1.00 -
610   0.00 -

500   2.00 -
510   6.00 -
520   0.00 -
430   7.00 -
600   2.00 -
610   0.00 -

500   2.00 -
510   6.00 -
520   1.00 -
430   7.00 -
600   0.00 -
610   0.00 -

500   2.00 -
510   6.00 -
520   0.00 -
430   7.00 -
600   0.00 -
610   0.00 -

500   2.00 -
510   6.00 -
520   0.00 -
430   8.00 -
600   0.00 -
610   0.00 -

500   2.00 -
510   6.00 -
520   0.00 -
430   9.00 -
600   0.00 -
610   0.00 -
############################################################
  </PP_INFO>



<PP_HEADER>
   0         Version Number
   Gd        Element
   NC        Norm - Conserving pseudopotential
    F      Nonlinear Core Correction
SLA  PW   PBE  PBE     PBE  Exchange-Correlation functional
 18          Z valence
 0          Total energy
 0.000000   0.000000     Suggested cutoff for wfc and rho
 3           Max angular momentum component
 1183           Number of points in mesh
 7  6     Number of Wavefuncitons, Number of Projectors
 Wavefunctions         nl  l   occ
                       S  0  2.000000
                       P  1  2.000000
                       P  1  4.000000
                      3D  2  0.400000
                      3D  2  0.600000
                       F  3  3.000000
                       F  3  4.000000
</PP_HEADER>
<PP_MESH>
  <PP_R>
 2.4999999999999988e-05  2.5327121683995213e-05  2.5658523711836034e-05  2.5994262091253924e-05 
 2.6334393562834095e-05  2.6678975609604813e-05  2.7028066466752071e-05  2.7381725131461625e-05 
 2.7740011372889550e-05  2.8102985742263406e-05  2.8470709583115529e-05  2.8843245041650238e-05 
 2.9220655077246704e-05  2.9603003473099207e-05  2.9990354846996705e-05  3.0382774662243262e-05 
 3.0780329238721681e-05  3.1183085764101607e-05  3.1591112305194430e-05  3.2004477819456731e-05 
 3.2423252166644273e-05  3.2847506120618450e-05  3.3277311381307261e-05  3.3712740586822762e-05 
 3.4153867325736991e-05  3.4600766149518774e-05  3.5053512585133001e-05  3.5512183147804859e-05 
 3.5976855353951136e-05  3.6447607734280623e-05  3.6924519847066036e-05  3.7407672291589528e-05 
 3.7897146721764214e-05  3.8393025859933725e-05  3.8895393510852673e-05  3.9404334575849763e-05 
 3.9919935067176292e-05  4.0442282122542487e-05  4.0971464019843929e-05  4.1507570192080781e-05 
 4.2050691242472122e-05  4.2600918959768191e-05  4.3158346333762730e-05  4.3723067571008719e-05 
 4.4295178110739335e-05  4.4874774640997477e-05  4.5461955114976255e-05  4.6056818767573307e-05 
 4.6659466132161768e-05  4.7269999057580653e-05  4.7888520725347397e-05  4.8515135667096032e-05 
 4.9149949782243122e-05  4.9793070355885054e-05  5.0444606076929448e-05  5.1104667056463889e-05 
 5.1773364846364919e-05  5.2450812458150609e-05  5.3137124382079726e-05  5.3832416606500968e-05 
 5.4536806637455013e-05  5.5250413518533666e-05  5.5973357850998279e-05  5.6705761814161721e-05 
 5.7447749186036953e-05  5.8199445364255826e-05  5.8960977387261563e-05  5.9732473955778639e-05 
 6.0514065454563248e-05  6.1305883974439014e-05  6.2108063334620394e-05  6.2920739105328522e-05 
 6.3744048630702890e-05  6.4578131052012860e-05  6.5423127331172814e-05  6.6279180274565112e-05 
 6.7146434557174665e-05  6.8025036747039399e-05  6.8915135330020600e-05  6.9816880734897214e-05 
 7.0730425358788958e-05  7.1655923592911587e-05  7.2593531848669449e-05  7.3543408584089356e-05 
 7.4505714330600414e-05  7.5480611720164204e-05  7.6468265512759809e-05  7.7468842624228934e-05 
 7.8482512154484890e-05  7.9509445416090920e-05  8.0549815963212447e-05  8.1603799620948121e-05 
 8.2671574515044664e-05  8.3753321102000589e-05  8.4849222199563762e-05  8.5959463017628017e-05 
 8.7084231189534173e-05  8.8223716803780176e-05  8.9378112436146992e-05  9.0547613182244074e-05 
 9.1732416690481038e-05  9.2932723195470723e-05  9.4148735551869312e-05  9.5380659268659343e-05 
 9.6628702543880883e-05  9.7893076299818019e-05  9.9173994218644797e-05  1.0047167277853824e-04 
 1.0178633129026355e-04  1.0311819193423824e-04  1.0446747979808107e-04  1.0583442291465249e-04 
 1.0721925230059265e-04  1.0862220199536381e-04  1.1004350910080363e-04  1.1148341382119559e-04 
 1.1294215950386464e-04  1.1441999268030310e-04  1.1591716310783519e-04  1.1743392381182657e-04 
 1.1897053112844624e-04  1.2052724474798810e-04  1.2210432775875877e-04  1.2370204669154077e-04 
 1.2532067156463650e-04  1.2696047592950196e-04  1.2862173691697773e-04  1.3030473528412463e-04 
 1.3200975546167243e-04  1.3373708560208926e-04  1.3548701762828002e-04  1.3725984728292216e-04 
 1.3905587417844699e-04  1.4087540184767425e-04  1.4271873779511088e-04  1.4458619354891926e-04 
 1.4647808471356655e-04  1.4839473102316246e-04  1.5033645639549506e-04  1.5230358898677397e-04 
 1.5429646124708878e-04  1.5631540997659488e-04  1.5836077638243278e-04  1.6043290613639331e-04 
 1.6253214943333670e-04  1.6465886105037657e-04  1.6681340040683798e-04  1.6899613162500019e-04 
 1.7120742359163414e-04  1.7344765002034532e-04  1.7571718951473226e-04  1.7801642563237098e-04 
 1.8034574694963785e-04  1.8270554712737956e-04  1.8509622497744267e-04  1.8751818453007404e-04 
 1.8997183510220228e-04  1.9245759136661409e-04  1.9497587342203458e-04  1.9752710686412483e-04 
 2.0011172285740872e-04  2.0273015820814079e-04  2.0538285543812742e-04  2.0807026285951416e-04 
 2.1079283465055151e-04  2.1355103093235214e-04  2.1634531784665243e-04  2.1917616763459161e-04 
 2.2204405871652152e-04  2.2494947577286105e-04  2.2789290982600752e-04  2.3087485832332176e-04 
 2.3389582522119714e-04  2.3695632107022978e-04  2.4005686310150207e-04  2.4319797531399708e-04 
 2.4638018856315482e-04  2.4960404065058848e-04  2.5287007641497383e-04  2.5617884782412853e-04 
 2.5953091406829594e-04  2.6292684165464959e-04  2.6636720450303424e-04  2.6985258404295956e-04 
 2.7338356931186342e-04  2.7696075705466031e-04  2.8058475182459283e-04  2.8425616608540285e-04 
 2.8797562031483817e-04  2.9174374310951659e-04  2.9556117129115879e-04  2.9942855001421356e-04 
 3.0334653287488947e-04  3.0731578202161539e-04  3.1133696826694422e-04  3.1541077120092226e-04 
 3.1953787930594154e-04  3.2371899007309444e-04  3.2795481012005224e-04  3.3224605531048451e-04 
 3.3659345087504210e-04  3.4099773153392247e-04  3.4545964162103961e-04  3.4997993520981805e-04 
 3.5455937624063311e-04  3.5919873864991860e-04  3.6389880650096348e-04  3.6866037411642142e-04 
 3.7348424621255240e-04  3.7837123803522208e-04  3.8332217549767966e-04  3.8833789532014028e-04 
 3.9341924517119172e-04  3.9856708381105299e-04  4.0378228123670666e-04  4.0906571882893010e-04 
 4.1441828950125159e-04  4.1984089785085442e-04  4.2533446031145619e-04  4.3089990530818757e-04 
 4.3653817341449949e-04  4.4225021751112152e-04  4.4803700294710126e-04  4.5389950770295066e-04 
 4.5983872255592640e-04  4.6585565124747472e-04  4.7195131065286543e-04  4.7812673095304640e-04 
 4.8438295580874611e-04  4.9072104253685583e-04  4.9714206228911777e-04  5.0364710023315280e-04 
 5.1023725573585629e-04  5.1691364254919303e-04  5.2367738899842490e-04  5.3052963817280048e-04 
 5.3747154811873928e-04  5.4450429203554420e-04  5.5162905847367608e-04  5.5884705153562040e-04 
 5.6615949107938440e-04  5.7356761292465545e-04  5.8107266906165685e-04  5.8867592786273888e-04 
 5.9637867429673526e-04  6.0418221014612715e-04  6.1208785422704542e-04  6.2009694261215651e-04 
 6.2821082885645974e-04  6.3643088422604222e-04  6.4475849792982622e-04  6.5319507735434772e-04 
 6.6174204830160956e-04  6.7040085523004448e-04  6.7917296149863247e-04  6.8805984961421078e-04 
 6.9706302148202291e-04  7.0618399865954296e-04  7.1542432261362265e-04  7.2478555498100346e-04 
 7.3426927783223548e-04  7.4387709393905304e-04  7.5361062704524574e-04  7.6347152214107565e-04 
 7.7346144574128321e-04  7.8358208616673402e-04  7.9383515382974821e-04  8.0422238152316403e-04 
 8.1474552471318476e-04  8.2540636183605482e-04  8.3620669459862215e-04  8.4714834828282948e-04 
 8.5823317205419210e-04  8.6946303927430929e-04  8.8083984781747011e-04  8.9236552039139610e-04 
 9.0404200486218452e-04  9.1587127458350249e-04  9.2785532873008688e-04  9.3999619263561212e-04 
 9.5229591813497454e-04  9.6475658391105871e-04  9.7738029584603747e-04  9.9016918737727380e-04 
 1.0031254198578754e-03  1.0162511829219683e-03  1.0295486948547518e-03  1.0430202029673909e-03 
 1.0566679839768202e-03  1.0704943443905137e-03  1.0845016208962900e-03  1.0986921807572157e-03 
 1.1130684222116832e-03  1.1276327748787152e-03  1.1423877001685765e-03  1.1573356916987601e-03 
 1.1724792757154114e-03  1.1878210115202725e-03  1.2033634919032094e-03  1.2191093435804001e-03 
 1.2350612276382537e-03  1.2512218399831430e-03  1.2675939117970188e-03  1.2841802099989843e-03 
 1.3009835377129132e-03  1.3180067347411818e-03  1.3352526780446054e-03  1.3527242822286487e-03 
 1.3704245000360036e-03  1.3883563228456073e-03  1.4065227811781956e-03  1.4249269452084620e-03 
 1.4435719252839326e-03  1.4624608724506170e-03  1.4815969789855441e-03  1.5009834789362637e-03 
 1.5206236486674095e-03  1.5405208074144115e-03  1.5606783178444550e-03  1.5810995866247810e-03 
 1.6017880649984151e-03  1.6227472493674446e-03  1.6439806818839126e-03  1.6654919510484521e-03 
 1.6872846923167506e-03  1.7093625887139516e-03  1.7317293714570934e-03  1.7543888205856951e-03 
 1.7773447656005922e-03  1.8006010861111269e-03  1.8241617124908191e-03  1.8480306265416036e-03 
 1.8722118621667654e-03  1.8967095060526786e-03  1.9215276983594670e-03  1.9466706334206997e-03 
 1.9721425604522450e-03  1.9979477842703985e-03  2.0240906660194012e-03  2.0505756239084928e-03 
 2.0774071339585928e-03  2.1045897307587621e-03  2.1321280082325571e-03  2.1600266204144136e-03 
 2.1882902822361930e-03  2.2169237703240129e-03  2.2459319238055122e-03  2.2753196451276683e-03 
 2.3050919008853316e-03  2.3352537226605861e-03  2.3658102078731001e-03  2.3967665206416021e-03 
 2.4281278926566287e-03  2.4598996240646934e-03  2.4920870843640240e-03  2.5246957133120227e-03 
 2.5577310218445888e-03  2.5911985930074945e-03  2.6251040828999214e-03  2.6594532216303599e-03 
 2.6942518142850100e-03  2.7295057419088544e-03  2.7652209624995689e-03  2.8014035120144391e-03 
 2.8380595053904539e-03  2.8751951375777332e-03  2.9128166845865059e-03  2.9509305045477591e-03 
 2.9895430387877810e-03  3.0286608129167598e-03  3.0682904379316267e-03  3.1084386113333327e-03 
 3.1491121182587382e-03  3.1903178326273241e-03  3.2320627183028863e-03  3.2743538302704633e-03 
 3.3171983158286353e-03  3.3606034157974349e-03  3.4045764657420654e-03  3.4491248972126280e-03 
 3.4942562390000704e-03  3.5399781184085712e-03  3.5862982625445771e-03  3.6332244996226865e-03 
 3.6807647602886580e-03  3.7289270789596946e-03  3.7777195951822825e-03  3.8271505550077941e-03 
 3.8772283123860909e-03  3.9279613305773587e-03  3.9793581835824232e-03  4.0314275575917729e-03 
 4.0841782524535407e-03  4.1376191831607118e-03  4.1917593813577715e-03  4.2466079968670727e-03 
 4.3021742992351833e-03  4.3584676792994548e-03  4.4154976507751031e-03  4.4732738518630435e-03 
 4.5318060468787780e-03  4.5911041279025674e-03  4.6511781164512442e-03  4.7120381651718554e-03 
 4.7736945595574874e-03  4.8361577196855392e-03  4.8994382019787409e-03  4.9635467009892138e-03 
 5.0284940512058760e-03  5.0942912288854982e-03  5.1609493539077032e-03  5.2284796916542784e-03 
 5.2968936549130296e-03  5.3662028058065808e-03  5.4364188577463949e-03  5.5075536774123711e-03 
 5.5796192867583411e-03  5.6526278650438060e-03  5.7265917508922699e-03  5.8015234443764725e-03 
 5.8774356091309612e-03  5.9543410744922580e-03  6.0322528376670521e-03  6.1111840659287577e-03 
 6.1911480988428138e-03  6.2721584505211064e-03  6.3542288119058802e-03  6.4373730530835511e-03 
 6.5216052256287585e-03  6.6069395649791486e-03  6.6933904928411754e-03  6.7809726196274090e-03 
 6.8697007469257308e-03  6.9595898700008348e-03  7.0506551803284669e-03  7.1429120681628152e-03 
 7.2363761251375116e-03  7.3310631469006250e-03  7.4269891357842044e-03  7.5241703035086836e-03 
 7.6226230739227085e-03  7.7223640857788075e-03  7.8234101955453762e-03  7.9257784802554652e-03 
 8.0294862403928365e-03  8.1345510028157965e-03  8.2409905237192434e-03  8.3488227916355528e-03 
 8.4580660304746542e-03  8.5687387026039223e-03  8.6808595119683574e-03  8.7944474072515991e-03 
 8.9095215850783036e-03  9.0261014932584080e-03  9.1442068340738779e-03  9.2638575676083947e-03 
 9.3850739151207126e-03  9.5078763624620709e-03  9.6322856635383518e-03  9.7583228438175417e-03 
 9.8860092038830887e-03  1.0015366323033750e-02  1.0146416062930545e-02  1.0279180571291437e-02 
 1.0413682285634312e-02  1.0549943937069029e-02  1.0687988554138999e-02  1.0827839466713066e-02 
 1.0969520309928312e-02  1.1113055028184455e-02  1.1258467879190508e-02  1.1405783438064386e-02 
 1.1555026601486176e-02  1.1706222591905688e-02  1.1859396961805175e-02  1.2014575598017718e-02 
 1.2171784726102178e-02  1.2331050914775375e-02  1.2492401080402263e-02  1.2655862491544862e-02 
 1.2821462773570708e-02  1.2989229913321623e-02  1.3159192263843501e-02  1.3331378549178118e-02 
 1.3505817869217517e-02  1.3682539704621967e-02  1.3861573921802267e-02  1.4042950777967238e-02 
 1.4226700926237266e-02  1.4412855420824754e-02  1.4601445722282363e-02  1.4792503702819879e-02 
 1.4986061651690762e-02  1.5182152280649057e-02  1.5380808729477773e-02  1.5582064571589583e-02 
 1.5785953819700813e-02  1.5992510931579669e-02  1.6201770815869685e-02  1.6413768837989378e-02 
 1.6628540826109036e-02  1.6846123077205843e-02  1.7066552363198102e-02  1.7289865937159785e-02 
 1.7516101539616399e-02  1.7745297404923227e-02  1.7977492267727012e-02  1.8212725369512212e-02 
 1.8451036465232926e-02  1.8692465830031500e-02  1.8937054266045226e-02  1.9184843109301932e-02 
 1.9435874236705897e-02  1.9690190073115121e-02  1.9947833598511263e-02  2.0208848355263324e-02 
 2.0473278455486441e-02  2.0741168588496936e-02  2.1012564028364857e-02  2.1287510641565505e-02 
 2.1566054894730916e-02  2.1848243862502829e-02  2.2134125235488442e-02  2.2423747328320209e-02 
 2.2717159087821150e-02  2.3014410101276972e-02  2.3315550604816451e-02  2.3620631491901391e-02 
 2.3929704321927849e-02  2.4242821328939724e-02  2.4560035430456453e-02  2.4881400236416187e-02 
 2.5206970058236012e-02  2.5536799917990710e-02  2.5870945557711602e-02  2.6209463448807122e-02 
 2.6552410801606526e-02  2.6899845575028707e-02  2.7251826486377306e-02  2.7608413021264086e-02 
 2.7969665443662150e-02  2.8335644806090705e-02  2.8706412959933064e-02  2.9082032565889690e-02 
 2.9462567104568033e-02  2.9848080887210780e-02  3.0238639066564783e-02  3.0634307647891924e-02 
 3.1035153500124174e-02  3.1441244367164611e-02  3.1852648879336302e-02  3.2269436564980991e-02 
 3.2691677862209542e-02  3.3119444130806190e-02  3.3552807664288392e-02  3.3991841702124791e-02 
 3.4436620442112723e-02  3.4887219052917855e-02  3.5343713686777890e-02  3.5806181492372441e-02 
 3.6274700627861388e-02  3.6749350274093734e-02  3.7230210647989447e-02  3.7717363016096142e-02 
 3.8210889708323530e-02  3.8710874131857233e-02  3.9217400785254847e-02  3.9730555272726377e-02 
 4.0250424318601569e-02  4.0777095781986503e-02  4.1310658671612023e-02  4.1851203160876448e-02 
 4.2398820603084940e-02  4.2953603546888645e-02  4.3515645751925507e-02  4.4085042204665893e-02 
 4.4661889134465532e-02  4.5246284029828505e-02  4.5838325654883064e-02  4.6438114066072941e-02 
 4.7045750629067226e-02  4.7661338035891225e-02  4.8284980322281887e-02  4.8916782885269933e-02 
 4.9556852500992267e-02  5.0205297342737376e-02  5.0862226999226864e-02  5.1527752493136250e-02 
 5.2201986299858005e-02  5.2885042366510267e-02  5.3577036131193932e-02  5.4278084542502304e-02 
 5.4988306079285454e-02  5.5707820770673482e-02  5.6436750216361763e-02  5.7175217607161530e-02 
 5.7923347745819455e-02  5.8681267068109604e-02  5.9449103664201398e-02  6.0226987300307011e-02 
 6.1015049440612437e-02  6.1813423269495037e-02  6.2622243714032119e-02  6.3441647466803863e-02 
 6.4271773008994754e-02  6.5112760633797215e-02  6.5964752470121443e-02  6.6827892506615680e-02 
 6.7702326616000327e-02  6.8588202579721161e-02  6.9485670112924516e-02  7.0394880889759592e-02 
 7.1315988569011654e-02  7.2249148820070830e-02  7.3194519349240553e-02  7.4152259926390351e-02 
 7.5122532411957252e-02  7.6105500784300673e-02  7.7101331167415091e-02  7.8110191859005432e-02 
 7.9132253358929885e-02  8.0167688398014289e-02  8.1216671967244816e-02  8.2279381347341335e-02 
 8.3355996138718441e-02  8.4446698291838332e-02  8.5551672137960846e-02  8.6671104420295936e-02 
 8.7805184325563668e-02  8.8954103515967262e-02  9.0118056161584414e-02  9.1297238973182565e-02 
 9.2491851235463454e-02  9.3702094840742683e-02  9.4928174323070047e-02  9.6170296892796256e-02 
 9.7428672471591954e-02  9.8703513727925005e-02  9.9995036113002173e-02  1.0130345789718012e-01 
 1.0262900020685473e-01  1.0397188706183125e-01  1.0533234541318436e-01  1.0671060518161346e-01 
 1.0810689929629982e-01  1.0952146373427214e-01  1.1095453756028723e-01  1.1240636296723254e-01 
 1.1387718531705733e-01  1.1536725318223942e-01  1.1687681838779454e-01  1.1840613605383532e-01 
 1.1995546463868725e-01  1.2152506598256875e-01  1.2311520535184270e-01  1.2472615148384722e-01 
 1.2635817663231302e-01  1.2801155661337418e-01  1.2968657085218285e-01  1.3138350243013217e-01 
 1.3310263813269760e-01  1.3484426849790460e-01  1.3660868786543015e-01  1.3839619442634687e-01 
 1.4020709027351796e-01  1.4204168145265172e-01  1.4390027801402391e-01  1.4578319406487708e-01 
 1.4769074782250530e-01  1.4962326166803377e-01  1.5158106220090201e-01  1.5356448029405978e-01 
 1.5557385114988556e-01  1.5760951435683648e-01  1.5967181394683991e-01  1.6176109845343442e-01 
 1.6387772097067460e-01  1.6602203921280370e-01  1.6819441557470824e-01  1.7039521719316392e-01 
 1.7262481600888230e-01  1.7488358882936997e-01  1.7717191739260968e-01  1.7949018843157502e-01 
 1.8183879373958931e-01  1.8421813023653952e-01  1.8662860003595666e-01  1.8907061051297400e-01 
 1.9154457437317440e-01  1.9405090972233846e-01  1.9659004013710554e-01  1.9916239473655911e-01 
 2.0176840825474929e-01  2.0440852111416247e-01  2.0708317950015601e-01  2.0979283543636310e-01 
 2.1253794686108615e-01  2.1531897770468961e-01  2.1813639796800516e-01  2.2099068380176304e-01 
 2.2388231758706259e-01  2.2681178801689597e-01  2.2977959017873817e-01  2.3278622563821824e-01 
 2.3583220252388490e-01  2.3891803561308159e-01  2.4204424641894487e-01  2.4521136327854171e-01 
 2.4841992144215938e-01  2.5167046316376424e-01  2.5496353779264425e-01  2.5829970186624868e-01 
 2.6167951920424676e-01  2.6510356100381294e-01  2.6857240593616089e-01  2.7208664024434032e-01 
 2.7564685784231358e-01  2.7925366041532840e-01  2.8290765752160413e-01  2.8660946669534865e-01 
 2.9035971355112289e-01  2.9415903188957149e-01  2.9800806380453637e-01  3.0190745979157224e-01 
 3.0585787885788185e-01  3.0985998863368980e-01  3.1391446548507357e-01  3.1802199462827108e-01 
 3.2218327024548449e-01  3.2639899560219615e-01  3.3066988316602580e-01  3.3499665472713680e-01 
 3.3938004152022117e-01  3.4382078434807972e-01  3.4831963370681990e-01  3.5287734991269087e-01 
 3.5749470323057936e-01  3.6217247400418584e-01  3.6691145278790449e-01  3.7171244048042906e-01 
 3.7657624846010640e-01  3.8150369872206136e-01  3.8649562401711612e-01  3.9155286799252670e-01 
 3.9667628533456173e-01  4.0186674191294625e-01  4.0712511492719650e-01  4.1245229305486586e-01 
 4.1784917660173787e-01  4.2331667765397707e-01  4.2885572023227442e-01  4.3446724044800911e-01 
 4.4015218666145356e-01  4.4591151964204861e-01  4.5174621273077570e-01  4.5765725200465396e-01 
 4.6364563644338957e-01  4.6971237809820560e-01  4.7585850226288112e-01  4.8208504764702831e-01 
 4.8839306655163689e-01  4.9478362504691548e-01  5.0125780315245982e-01  5.0781669501977911e-01 
 5.1446140911721039e-01  5.2119306841724955e-01  5.2801281058634120e-01  5.3492178817714342e-01 
 5.4192116882331320e-01  5.4901213543683891e-01  5.5619588640795548e-01  5.6347363580767507e-01 
 5.7084661359296784e-01  5.7831606581462802e-01  5.8588325482785897e-01  5.9354945950561477e-01 
 6.0131597545473203e-01  6.0918411523489147e-01  6.1715520858044259e-01  6.2523060262513297e-01 
 6.3341166212977640e-01  6.4169976971290066e-01  6.5009632608441514e-01  6.5860275028232884e-01 
 6.6722047991257860e-01  6.7595097139198279e-01  6.8479570019438107e-01  6.9375616109999205e-01 
 7.0283386844803575e-01  7.1203035639265988e-01  7.2134717916221536e-01  7.3078591132192539e-01 
 7.4034814803998994e-01  7.5003550535717345e-01  7.5984962045991944e-01  7.6979215195703876e-01 
 7.7986478016001859e-01  7.9006920736699904e-01  8.0040715815046570e-01  8.1088037964870630e-01 
 8.2149064186108267e-01  8.3223973794715933e-01  8.4312948452976022e-01  8.5416172200197626e-01 
 8.6533831483819823e-01  8.7666115190921678e-01  8.8813214680144625e-01  8.9975323814032571e-01 
 9.1152638991795054e-01  9.2345359182499254e-01  9.3553685958696176e-01  9.4777823530486949e-01 
 9.6017978780034763e-01  9.7274361296528478e-01  9.8547183411603689e-01  9.9836660235227304e-01 
 1.0114300969205157e+00  1.0246645255824396e+00  1.0380721249879892e+00  1.0516551610533722e+00 
 1.0654159293440142e+00  1.0793567554625083e+00  1.0934799954416492e+00  1.1077880361426078e+00 
 1.1222832956583171e+00  1.1369682237221357e+00  1.1518453021218575e+00  1.1669170451191411e+00 
 1.1821859998744253e+00  1.1976547468774055e+00  1.2133259003831420e+00  1.2292021088538763e+00 
 1.2452860554066270e+00  1.2615804582666426e+00  1.2780880712267886e+00  1.2948116841129453e+00 
 1.3117541232554966e+00  1.3289182519669773e+00  1.3463069710259945e+00  1.3639232191674560e+00 
 1.3817699735792259e+00  1.3998502504052770e+00  1.4181671052554254e+00  1.4367236337217371e+00 
 1.4555229719016889e+00  1.4745682969281777e+00  1.4938628275064623e+00  1.5134098244581338e+00 
 1.5332125912722003e+00  1.5532744746633862e+00  1.5735988651377337e+00  1.5941891975656071e+00 
 1.6150489517621933e+00  1.6361816530756004e+00  1.6575908729826507e+00  1.6792802296924587e+00 
 1.7012533887579342e+00  1.7235140636952575e+00  1.7460660166114754e+00  1.7689130588403068e+00 
 1.7920590515862662e+00  1.8155079065772177e+00  1.8392635867254652e+00  1.8633301067974946e+00 
 1.8877115340924788e+00  1.9124119891296605e+00  1.9374356463447306e+00  1.9627867347953174e+00 
 1.9884695388757068e+00  2.0144883990409164e+00  2.0408477125402404e+00  2.0675519341603996e+00 
 2.0946055769784087e+00  2.1220132131242875e+00  2.1497794745537808e+00  2.1779090538311574e+00 
 2.2064067049222653e+00  2.2352772439979662e+00  2.2645255502480794e+00  2.2941565667059742e+00 
 2.3241753010839568e+00  2.3545868266195846e+00  2.3853962829330553e+00  2.4166088768958160e+00 
 2.4482298835105349e+00  2.4802646468025911e+00  2.5127185807232268e+00  2.5455971700645179e+00 
 2.5789059713863174e+00  2.6126506139553269e+00  2.6468368006964607e+00  2.6814703091566350e+00 
 2.7165569924812161e+00  2.7521027804031943e+00  2.7881136802453321e+00  2.8245957779354112e+00 
 2.8615552390347725e+00  2.8989983097803096e+00  2.9369313181400956e+00  2.9753606748828276e+00 
 3.0142928746612614e+00  3.0537344971098217e+00  3.0936922079565767e+00  3.1341727601497635e+00 
 3.1751829949990498e+00  3.2167298433317337e+00  3.2588203266640687e+00  3.3014615583879179e+00 
 3.3446607449729382e+00  3.3884251871844691e+00  3.4327622813174141e+00  3.4776795204462081e+00 
 3.5231844956911709e+00  3.5692848975014257e+00  3.6159885169546016e+00  3.6633032470735452e+00 
 3.7112370841602602e+00  3.7597981291473017e+00  3.8089945889668524e+00  3.8588347779377141e+00 
 3.9093271191704475e+00  3.9604801459908971e+00  4.0123025033823456e+00  4.0648029494465332e+00 
 4.1179903568838014e+00  4.1718737144925990e+00  4.2264621286886159e+00  4.2817648250437630e+00 
 4.3377911498453567e+00  4.3945505716756363e+00  4.4520526830119858e+00  4.5103072018480797e+00 
 4.5693239733362532e+00  4.6291129714513533e+00  4.6896843006763662e+00  4.7510481977100953e+00 
 4.8132150331971912e+00  4.8761953134808156e+00  4.9399996823782351e+00  5.0046389229796526e+00 
 5.0701239594705791e+00  5.1364658589780419e+00  5.2036758334409567e+00  5.2717652415049763e+00 
 5.3407455904421299e+00  5.4106285380955503e+00  5.4814258948497283e+00  5.5531496256264594e+00 
 5.6258118519069553e+00  5.6994248537803989e+00  5.7740010720193151e+00  5.8495531101820832e+00 
 5.9260937367429740e+00  6.0036358872500513e+00  6.0821926665113075e+00  6.1617773508094116e+00 
 6.2424033901454283e+00  6.3240844105119036e+00  6.4068342161956879e+00  6.4906667921108943e+00 
 6.5755963061623834e+00  6.6616371116401680e+00  6.7488037496451732e+00  6.8371109515466628e+00 
 6.9265736414719488e+00  7.0172069388285587e+00  7.1090261608594618e+00  7.2020468252317205e+00 
 7.2962846526590113e+00  7.3917555695584651e+00  7.4884757107422679e+00  7.5864614221444819e+00 
 7.6857292635835508e+00  7.7862960115609443e+00  7.8881786620964300e+00  7.9913944336004379e+00 
 8.0959607697840159e+00  8.2018953426068570e+00  8.3092160552639047e+00  8.4179410452110286e+00 
 8.5280886872303210e+00  8.6396775965354191e+00  8.7527266319175983e+00  8.8672548989329094e+00 
 8.9832817531310631e+00  9.1008268033265765e+00  9.2199099149126997e+00  9.3405512132187205e+00 
 9.4627710869111912e+00  9.5865901914396598e+00  9.7120294525274939e+00  9.8391100697083758e+00 
 9.9678535199090703e+00  1.0098281561079087e+01  1.0230416235867812e+01  1.0364279875349780e+01 
 1.0499895102798670e+01  1.0637284837510700e+01  1.0776472298678055e+01  1.0917481009312914e+01 
 1.1060334800223007e+01  1.1205057814039005e+01  1.1351674509294698e+01  1.1500209664560543e+01 
 1.1650688382631314e+01  1.1803136094768512e+01  1.1957578564998332e+01  1.2114041894465831e+01 
 1.2272552525846088e+01  1.2433137247813074e+01  1.2595823199567009e+01  1.2760637875420949e+01 
 1.2927609129447386e+01  1.3096765180185663e+01  1.3268134615410958e+01  1.3441746396965701e+01 
 1.3617629865654214e+01  1.3795814746201273e+01  1.3976331152275815e+01  1.4159209591580112e+01 
 1.4344480971005673e+01  1.4532176601856587e+01  1.4722328205141201e+01  1.4914967916933049e+01 
 1.5110128293801926e+01  1.5307842318316023e+01  1.5508143404616060e+01  1.5711065404062358e+01 
 1.5916642610955799e+01  1.6124909768333641e+01  1.6335902073841176e+01  1.6549655185680219e+01 
 1.6766205228635418e+01  1.6985588800179482e+01  1.7207842976658089e+01  1.7433005319556081e+01 
 1.7661113881845317e+01  1.7892207214415745e+01  1.8126324372590595e+01  1.8363504922726818e+01 
 1.8603788948901897e+01  1.8847217059688163e+01  1.9093830395015711e+01  1.9343670633125182e+01 
 1.9596779997611460e+01  1.9853201264559566e+01  2.0112977769773920e+01  2.0376153416102198e+01 
 2.0642772680855018e+01  2.0912880623322696e+01  2.1186522892390393e+01  2.1463745734252917e+01 
 2.1744596000230285e+01  2.2029121154685932e+01  2.2317369283048162e+01  2.2609389099936724e+01 
 2.2905229957395708e+01  2.3204941853234157e+01  2.3508575439475806e+01  2.3816182030919414e+01 
 2.4127813613811060e+01  2.4443522854629975e+01  2.4763363108989267e+01  2.5087388430653181e+01 
 2.5415653580672288e+01  2.5748214036638242e+01  2.6085126002059624e+01  2.6426446415860482e+01 
 2.6772232962003116e+01  2.7122544079236885e+01  2.7477438970974273e+01  2.7836977615296721e+01 
 2.8201220775090853e+01  2.8570230008317608e+01  2.8944067678415678e+01  2.9322796964841086e+01 
 2.9706481873744643e+01  3.0095187248789163e+01  3.0488978782108187e+01  3.0887923025408103e+01 
 3.1292087401215561e+01  3.1701540214272018e+01  3.2116350663077419e+01  3.2536588851584902e+01 
 3.2962325801048536e+01  3.3393633462026067e+01  3.3830584726538760e+01  3.4273253440390363e+01 
 3.4721714415646993e+01  3.5176043443280903e+01  3.5636317305979112e+01  3.6102613791119914e+01 
 3.6575011703919138e+01  3.7053590880748381e+01  3.7538432202627604e+01  3.8029617608894171e+01 
 3.8527230111050812e+01  3.9031353806794748e+01  3.9542073894230441e+01  4.0059476686268212e+01 
 4.0583649625211393e+01  4.1114681297534254e+01  4.1652661448853308e+01  4.2197680999094587e+01 
 4.2749832057859273e+01  4.3309207939990550e+01  4.3875903181343716e+01  4.4450013554763423e+01 