  <PP_INFO>

############################################################
#    Opium Parameter File                                  #
############################################################
#-----------------------------------------------------------
#Command line   : opium Ir Ir.log ae ps nl tc2 ke upf rpt qmcpack 
 
#Opium version  : 4.1 
#Compile Host   : andes-login7.olcf.ornl.gov 
#Compile OS     : Linux 4.18.0-348.12.2.el8_5.x86_64 x86_64 
#Compile Date   : Fri Jul  8 17:09:33 EDT 2022 
#-----------------------------------------------------------
#Execution Host : andes-login7.olcf.ornl.gov 
#Execution Date : Fri Jul  8 20:55:52 2022
 
#-----------------------------------------------------------
############################################################
[Atom]
Ir
15            
100   2.00  -
200   2.00  -
210   6.00  -
300   2.00  -
310   6.00  -
320   10.0  -
400   2.00  -
410   6.00  -
420   10.0  -
430   14.0  -
500   2.00  -
510   6.00  -
520   5.00  -
530   0.10  -
600   0.10  -

[Pseudo]
5 -1 -1 -1 -1 -1 
g

[Gaussinfo]
17 5 3
2 2 2 2 4  2 2 2
2  6.28409524     76.59951132
2  13.82628737   438.87387880
2  5.34638280     61.99194401
2  11.26418806   262.75013487
2  4.76674648     31.12365351
2  6.81521041    123.95599302
2  2.78635024     10.32927586
2  2.59294634     11.88569819
1  12.17107024    17.00000000
3  12.17013869   206.90819411
2  5.60298402    -23.15704190
2  12.32034281  -143.20837865
2  13.722145     -15.366434 
2   4.201427       9.843941 
2  10.062658      -2.838512 
2   5.177629       3.880360 
2   2.295619      -4.159394 
2   2.299318       4.142597 

[KBdesign]
s

[Relativity]
frl

[XC]
pbe

[Configs]
8

500  2.00 -
510  6.00 -
520  8.00 -
530  0.00 -
600  0.00 -

500  2.00 -
510  6.00 -
520  7.00 -
530  0.00 -
600  1.00 -

500  2.00 -
510  6.00 -
520  7.00 -
530  1.00 -
600  0.00 -

500  2.00 -
510  6.00 -
520  7.00 -
530  0.00 -
600  0.00 -

500  2.00 -
510  6.00 -
520  6.00 -
530  0.00 -
600  1.00 -

500  2.00 -
510  6.00 -
520  6.00 -
530  0.00 -
600  0.00 -

500  2.00 -
510  6.00 -
520  5.00 -
530  0.00 -
600  0.00 -

500  2.00 -
510  6.00 -
520  4.00 -
530  0.00 -
600  0.00 -

############################################################
  </PP_INFO>



<PP_HEADER>
   0         Version Number
   Ir        Element
   NC        Norm - Conserving pseudopotential
    F      Nonlinear Core Correction
SLA  PW   PBE  PBE     PBE  Exchange-Correlation functional
 17          Z valence
 0          Total energy
 0.000000   0.000000     Suggested cutoff for wfc and rho
 3           Max angular momentum component
 1188           Number of points in mesh
 7  6     Number of Wavefuncitons, Number of Projectors
 Wavefunctions         nl  l   occ
                       S  0  2.000000
                       P  1  2.000000
                       P  1  4.000000
                      3D  2  2.000000
                      3D  2  3.000000
                       F  3  0.042857
                       F  3  0.057143
</PP_HEADER>
<PP_MESH>
  <PP_R>
 2.3505514316042709e-05  2.3813080853092221e-05  2.4124671857483338e-05  2.4440339988837427e-05 
 2.4760138595820001e-05  2.5084121725156819e-05  2.5412344130767797e-05  2.5744861283020716e-05 
 2.6081729378105727e-05  2.6423005347532676e-05  2.6768746867752667e-05  2.7119012369905517e-05 
 2.7473861049694750e-05  2.7833352877391830e-05  2.8197548607971288e-05  2.8566509791378359e-05 
 2.8940298782931231e-05  2.9318978753859131e-05  2.9702613701978438e-05  3.0091268462508473e-05 
 3.0485008719028799e-05  3.0883901014579917e-05  3.1288012762909168e-05  3.1697412259863872e-05 
 3.2112168694933382e-05  3.2532352162942396e-05  3.2958033675897091e-05  3.3389285174986329e-05 
 3.3826179542739858e-05  3.4268790615345698e-05  3.4717193195128562e-05  3.5171463063191686e-05 
 3.5631676992224004e-05  3.6097912759474818e-05  3.6570249159898507e-05  3.7048766019470947e-05 
 3.7533544208680325e-05  3.8024665656194432e-05  3.8522213362706831e-05  3.9026271414964107e-05 
 3.9536924999976858e-05  4.0054260419416276e-05  4.0578365104199583e-05  4.1109327629265944e-05 
 4.1647237728545823e-05  4.2192186310126281e-05  4.2744265471614637e-05  4.3303568515703178e-05 
 4.3870189965937558e-05  4.4444225582691473e-05  4.5025772379350463e-05  4.5614928638707219e-05 
 4.6211793929571860e-05  4.6816469123599132e-05  4.7429056412336028e-05  4.8049659324492348e-05 
 4.8678382743437337e-05  4.9315332924925236e-05  4.9960617515052753e-05  5.0614345568451370e-05 
 5.1276627566718097e-05  5.1947575437086926e-05  5.2627302571344894e-05  5.3315923844995472e-05 
 5.4013555636672922e-05  5.4720315847810449e-05  5.5436323922565910e-05  5.6161700868008093e-05 
 5.6896569274567297e-05  5.7641053336753206e-05  5.8395278874144296e-05  5.9159373352651537e-05 
 5.9933465906060406e-05  6.0717687357854846e-05  6.1512170243326736e-05  6.2317048831974658e-05 
 6.3132459150195842e-05  6.3958539004274712e-05  6.4795428003672833e-05  6.5643267584622938e-05 
 6.6502201034032189e-05  6.7372373513697854e-05  6.8253932084840109e-05  6.9147025732955650e-05 
 7.0051805392996677e-05  7.0968423974879200e-05  7.1897036389325194e-05  7.2837799574042942e-05 
 7.3790872520249651e-05  7.4756416299541687e-05  7.5734594091115865e-05  7.6725571209347097e-05 
 7.7729515131726975e-05  7.8746595527167898e-05  7.9776984284677502e-05  8.0820855542408065e-05 
 8.1878385717086774e-05  8.2949753533830150e-05  8.4035140056349159e-05  8.5134728717549467e-05 
 8.6248705350531934e-05  8.7377258219998891e-05  8.8520578054071365e-05  8.9678858076522506e-05 
 9.0852294039432956e-05  9.2041084256273381e-05  9.3245429635419722e-05  9.4465533714107602e-05 
 9.5701602692830278e-05  9.6953845470187098e-05  9.8222473678187923e-05  9.9507701718019338e-05 
 1.0080974679627917e-04  1.0212882896168441e-04  1.0346517114226068e-04  1.0481899918301711e-04 
 1.0619054188411481e-04  1.0758003103953471e-04  1.0898770147625117e-04  1.1041379109391836e-04 
 1.1185854090507598e-04  1.1332219507588067e-04  1.1480500096737095e-04  1.1630720917727187e-04 
 1.1782907358234603e-04  1.1937085138130022e-04  1.2093280313825202e-04  1.2251519282676594e-04 
 1.2411828787446561e-04  1.2574235920822960e-04  1.2738768129997885e-04  1.2905453221306268e-04 
 1.3074319364925283e-04  1.3245395099635113e-04  1.3418709337642104e-04  1.3594291369464979e-04 
 1.3772170868885027e-04  1.3952377897961016e-04  1.4134942912109766e-04  1.4319896765253195e-04 
 1.4507270715032693e-04  1.4697096428091750e-04  1.4889405985427654e-04  1.5084231887813323e-04 
 1.5281607061289960e-04  1.5481564862731664e-04  1.5684139085482784e-04  1.5889363965069126e-04 
 1.6097274184983799e-04  1.6307904882548793e-04  1.6521291654853323e-04  1.6737470564769799e-04 
 1.6956478147048520e-04  1.7178351414492152e-04  1.7403127864210969e-04  1.7630845483959968e-04 
 1.7861542758558870e-04  1.8095258676396173e-04  1.8332032736018250e-04  1.8571904952804726e-04 
 1.8814915865731174e-04  1.9061106544220234e-04  1.9310518595082546e-04  1.9563194169548327e-04 
 1.9819175970391074e-04  2.0078507259144355e-04  2.0341231863413225e-04  2.0607394184281108e-04 
 2.0877039203813725e-04  2.1150212492661161e-04  2.1426960217759412e-04  2.1707329150132698e-04 
 2.1991366672797897e-04  2.2279120788772387e-04  2.2570640129186638e-04  2.2865973961503025e-04 
 2.3165172197842142e-04  2.3468285403418045e-04  2.3775364805083931e-04  2.4086462299989527e-04 
 2.4401630464351932e-04  2.4720922562341055e-04  2.5044392555081404e-04  2.5372095109771640e-04 
 2.5704085608923460e-04  2.6040420159721402e-04  2.6381155603505049e-04  2.6726349525375414e-04 
 2.7076060263926845e-04  2.7430346921106523e-04  2.7789269372202748e-04  2.8152888275964036e-04 
 2.8521265084850554e-04  2.8894462055419773e-04  2.9272542258847975e-04  2.9655569591589413e-04 
 3.0043608786174957e-04  3.0436725422152051e-04  3.0834985937167834e-04  3.1238457638197256e-04 
 3.1647208712918092e-04  3.2061308241234824e-04  3.2480826206953334e-04  3.2905833509608328e-04 
 3.3336401976445516e-04  3.3772604374560593e-04  3.4214514423197025e-04  3.4662206806204834e-04 
 3.5115757184662295e-04  3.5575242209662879e-04  3.6040739535269398e-04  3.6512327831637821e-04 
 3.6990086798312666e-04  3.7474097177696416e-04  3.7964440768695185e-04  3.8461200440542887e-04 
 3.8964460146806424e-04  3.9474304939573953e-04  3.9990820983828947e-04  4.0514095572012220e-04 
 4.1044217138774629e-04  4.1581275275922696e-04  4.2125360747559843e-04  4.2676565505425797e-04 
 4.3234982704436496e-04  4.3800706718427688e-04  4.4373833156104213e-04  4.4954458877198154e-04 
 4.5542682008838277e-04  4.6138601962133889e-04  4.6742319448975439e-04  4.7353936499055106e-04 
 4.7973556477110083e-04  4.8601284100391372e-04  4.9237225456361404e-04  4.9881488020622896e-04 
 5.0534180675082670e-04  5.1195413726352760e-04  5.1865298924392634e-04  5.2543949481395158e-04 
 5.3231480090919724e-04  5.3928006947275746e-04  5.4633647765159712e-04  5.5348521799549355e-04 
 5.6072749865857961e-04  5.6806454360352478e-04  5.7549759280838746e-04  5.8302790247617459e-04 
 5.9065674524714303e-04  5.9838541041387844e-04  6.0621520413918918e-04  6.1414744967685012e-04 
 6.2218348759523665e-04  6.3032467600388376e-04  6.3857239078300948e-04  6.4692802581604132e-04 
 6.5539299322518729e-04  6.6396872361008713e-04  6.7265666628958686e-04  6.8145828954667767e-04 
 6.9037508087663841e-04  6.9940854723842655e-04  7.0856021530935824e-04  7.1783163174311913e-04 
 7.2722436343115318e-04  7.3673999776747144e-04  7.4638014291692487e-04  7.5614642808698813e-04 
 7.6604050380310010e-04  7.7606404218760500e-04  7.8621873724234702e-04  7.9650630513495972e-04 
 8.0692848448890261e-04  8.1748703667729162e-04  8.2818374612057735e-04  8.3902042058811490e-04 
 8.4999889150368156e-04  8.6112101425499243e-04  8.7238866850726320e-04  8.8380375852088115e-04 
 8.9536821347322760e-04  9.0708398778471431e-04  9.1895306144908402e-04  9.3097744036803570e-04 
 9.4315915669022617e-04  9.5550026915470695e-04  9.6800286343885875e-04  9.8066905251087150e-04 
 9.9350097698684583e-04  1.0065008054925594e-03  1.0196707350299710e-03  1.0330129913485172e-03 
 1.0465298293212721e-03  1.0602235333260245e-03  1.0740964176313436e-03  1.0881508267876964e-03 
 1.1023891360236800e-03  1.1168137516474443e-03  1.1314271114533619e-03  1.1462316851340215e-03 
 1.1612299746976106e-03  1.1764245148907632e-03  1.1918178736269366e-03  1.2074126524203948e-03 
 1.2232114868258716e-03  1.2392170468839827e-03  1.2554320375724741e-03  1.2718591992633647e-03 
 1.2885013081860787e-03  1.3053611768966340e-03  1.3224416547529718e-03  1.3397456283965009e-03 
 1.3572760222399531e-03  1.3750357989616121e-03  1.3930279600060139e-03  1.4112555460911980e-03 
 1.4297216377225962e-03  1.4484293557136454e-03  1.4673818617132121e-03  1.4865823587399205e-03 
 1.5060340917234644e-03  1.5257403480530164e-03  1.5457044581327992e-03  1.5659297959449323e-03 
 1.5864197796196446e-03  1.6071778720129454e-03  1.6282075812918547e-03  1.6495124615272941e-03 
 1.6710961132947325e-03  1.6929621842826864e-03  1.7151143699091981e-03  1.7375564139463626e-03 
 1.7602921091530361e-03  1.7833252979158219e-03  1.8066598728984427e-03  1.8302997776996081e-03 
 1.8542490075194955e-03  1.8785116098349473e-03  1.9030916850834990e-03  1.9279933873563723e-03 
 1.9532209251005195e-03  1.9787785618298631e-03  2.0046706168458405e-03  2.0309014659673748e-03 
 2.0574755422703996e-03  2.0843973368370595e-03  2.1116713995147133e-03  2.1393023396848658e-03 
 2.1672948270421715e-03  2.1956535923836184e-03  2.2243834284080464e-03  2.2534891905261231e-03 
 2.2829757976809209e-03  2.3128482331792300e-03  2.3431115455337490e-03  2.3737708493162973e-03 
 2.4048313260221824e-03  2.4362982249458965e-03  2.4681768640682517e-03  2.5004726309551342e-03 
 2.5331909836680149e-03  2.5663374516863751e-03  2.5999176368422016e-03  2.6339372142667101e-03 
 2.6684019333494575e-03  2.7033176187099932e-03  2.7386901711822479e-03  2.7745255688117806e-03 
 2.8108298678660814e-03  2.8476092038580989e-03  2.8848697925831536e-03  2.9226179311694239e-03 
 2.9608599991421754e-03  2.9996024595019179e-03  3.0388518598166575e-03  3.0786148333284678e-03 
 3.1188981000745113e-03  3.1597084680227466e-03  3.2010528342224899e-03  3.2429381859700318e-03 
 3.2853716019895095e-03  3.3283602536292260e-03  3.3719114060736274e-03  3.4160324195711285e-03 
 3.4607307506780241e-03  3.5060139535186582e-03  3.5518896810620899e-03  3.5983656864154614e-03 
 3.6454498241342967e-03  3.6931500515499332e-03  3.7414744301143359e-03  3.7904311267625019e-03 
 3.8400284152926814e-03  3.8902746777646838e-03  3.9411784059164585e-03  3.9927482025992195e-03 
 4.0449927832313460e-03  4.0979209772713130e-03  4.1515417297098870e-03  4.2058641025818537e-03 
 4.2608972764975224e-03  4.3166505521942651e-03  4.3731333521083732e-03  4.4303552219674691e-03 
 4.4883258324037497e-03  4.5470549805883579e-03  4.6065525918871156e-03  4.6668287215379427e-03 
 4.7278935563502145e-03  4.7897574164263573e-03  4.8524307569059576e-03  4.9159241697327299e-03 
 4.9802483854445622e-03  5.0454142749870078e-03  5.1114328515505002e-03  5.1783152724316087e-03 
 5.2460728409186499e-03  5.3147170082019669e-03  5.3842593753092157e-03  5.4547116950659450e-03 
 5.5260858740818824e-03  5.5983939747631583e-03  5.6716482173508886e-03  5.7458609819864221e-03 
 5.8210448108036170e-03  5.8972124100484863e-03  5.9743766522265913e-03  6.0525505782785217e-03 
 6.1317473997838318e-03  6.2119805011938570e-03  6.2932634420936988e-03  6.3756099594938307e-03 
 6.4590339701516850e-03  6.5435495729236209e-03  6.6291710511476622e-03  6.7159128750574138e-03 
 6.8037897042275810e-03  6.8928163900514334e-03  6.9830079782507749e-03  7.0743797114186744e-03 
 7.1669470315955117e-03  7.2607255828787158e-03  7.3557312140666558e-03  7.4519799813371253e-03 
 7.5494881509608749e-03  7.6482722020506542e-03  7.7483488293462023e-03  7.8497349460357295e-03 
 7.9524476866142651e-03  8.0565044097794317e-03  8.1619227013651121e-03  8.2687203773134897e-03 
 8.3769154866859871e-03  8.4865263147136036e-03  8.5975713858871677e-03  8.7100694670879907e-03 
 8.8240395707595599e-03  8.9395009581206553e-03  9.0564731424205500e-03  9.1749758922367967e-03 
 9.2950292348161611e-03  9.4166534594592784e-03  9.5398691209495883e-03  9.6646970430271616e-03 
 9.7911583219079112e-03  9.9192743298489663e-03  1.0049066718760599e-02  1.0180557423865453e-02 
 1.0313768667405653e-02  1.0448722962398408e-02  1.0585443116440784e-02  1.0723952235564216e-02 
 1.0864273728139511e-02  1.1006431308832875e-02  1.1150449002613803e-02  1.1296351148815319e-02 
 1.1444162405247394e-02  1.1593907752364168e-02  1.1745612497485717e-02  1.1899302279075033e-02 
 1.2055003071071003e-02  1.2212741187278069e-02  1.2372543285813279e-02  1.2534436373611643e-02 
 1.2698447810990316e-02  1.2864605316272584e-02  1.3032936970472305e-02  1.3203471222039687e-02 
 1.3376236891669132e-02  1.3551263177170007e-02  1.3728579658401151e-02  1.3908216302269905e-02 
 1.4090203467796639e-02  1.4274571911245480e-02  1.4461352791322183e-02  1.4650577674440038e-02 
 1.4842278540054668e-02  1.5036487786068623e-02  1.5233238234306721e-02  1.5432563136063008e-02 
 1.5634496177720270e-02  1.5839071486443184e-02  1.6046323635945825e-02  1.6256287652334746e-02 
 1.6468999020028449e-02  1.6684493687754348e-02  1.6902808074624184e-02  1.7123979076288948e-02 
 1.7348044071174351e-02  1.7575040926797788e-02  1.7805008006168153e-02  1.8037984174269203e-02 
 1.8274008804627852e-02  1.8513121785968388e-02  1.8755363528953777e-02  1.9000774973015139e-02 
 1.9249397593270622e-02  1.9501273407534811e-02  1.9756444983419774e-02  2.0014955445529191e-02 
 2.0276848482746426e-02  2.0542168355618107e-02  2.0810959903834237e-02  2.1083268553806215e-02 
 2.1359140326343999e-02  2.1638621844433763e-02  2.1921760341117265e-02  2.2208603667474305e-02 
 2.2499200300709777e-02  2.2793599352346337e-02  2.3091850576524423e-02  2.3394004378410771e-02 
 2.3700111822717071e-02  2.4010224642329964e-02  2.4324395247054074e-02  2.4642676732469369e-02 
 2.4965122888904383e-02  2.5291788210527029e-02  2.5622727904554159e-02  2.5957997900581724e-02 
 2.6297654860037042e-02  2.6641756185754664e-02  2.6990360031677638e-02  2.7343525312685631e-02 
 2.7701311714551726e-02  2.8063779704029360e-02  2.8430990539071485e-02  2.8803006279183221e-02 
 2.9179889795910081e-02  2.9561704783463413e-02  2.9948515769484863e-02  3.0340388125951721e-02 
 3.0737388080224925e-02  3.1139582726241673e-02  3.1547040035854353e-02  3.1959828870318084e-02 
 3.2378018991928395e-02  3.2801681075811162e-02  3.3230886721866908e-02  3.3665708466871370e-02 
 3.4106219796734387e-02  3.4552495158919151e-02  3.5004609975024081e-02  3.5462640653529123e-02 
 3.5926664602709123e-02  3.6396760243715916e-02  3.6873007023831714e-02  3.7355485429895863e-02 
 3.7844277001907324e-02  3.8339464346805151e-02  3.8841131152429230e-02  3.9349362201663747e-02 
 3.9864243386765599e-02  4.0385861723880576e-02  4.0914305367749142e-02  4.1449663626604863e-02 
 4.1992026977267685e-02  4.2541487080434759e-02  4.3098136796171277e-02  4.3662070199604087e-02 
 4.4233382596820622e-02  4.4812170540975707e-02  4.5398531848609515e-02  4.5992565616178635e-02 
 4.6594372236803648e-02  4.7204053417235790e-02  4.7821712195045663e-02  4.8447452956036800e-02 
 4.9081381451887132e-02  4.9723604818021308e-02  5.0374231591716681e-02  5.1033371730446600e-02 
 5.1701136630463322e-02  5.2377639145624301e-02  5.3062993606464742e-02  5.3757315839519718e-02 
 5.4460723186899200e-02  5.5173334526119056e-02  5.5895270290191743e-02  5.6626652487979587e-02 
 5.7367604724814794e-02  5.8118252223388948e-02  5.8878721844915924e-02  5.9649142110571748e-02 
 6.0429643223214972e-02  6.1220357089391324e-02  6.2021417341626153e-02  6.2832959361008744e-02 
 6.3655120300071824e-02  6.4488039105970951e-02  6.5331856543966768e-02  6.6186715221214637e-02 
 6.7052759610865695e-02  6.7930136076483030e-02  6.8818992896777592e-02  6.9719480290667560e-02 
 7.0631750442665772e-02  7.1555957528599182e-02  7.2492257741665039e-02  7.3440809318827821e-02 
 7.4401772567561836e-02  7.5375309892943068e-02  7.6361585825096723e-02  7.7360767047002801e-02 
 7.8373022422665917e-02  7.9398523025653839e-02  8.0437442168009257e-02  8.1489955429539990e-02 
 8.2556240687492261e-02  8.3636478146612570e-02  8.4730850369602567e-02  8.5839542307972652e-02 
 8.6962741333299176e-02  8.8100637268890794e-02  8.9253422421868872e-02  9.0421291615668031e-02 
 9.1604442222961671e-02  9.2803074199018412e-02  9.4017390115495245e-02  9.5247595194671936e-02 
 9.6493897344135007e-02  9.7756507191914047e-02  9.9035638122078454e-02  1.0033150631079990e-01 
 1.0164433076288656e-01  1.0297433334879549e-01  1.0432173884212925e-01  1.0568677495762314e-01 
 1.0706967238962964e-01  1.0847066485110614e-01  1.0988998911311318e-01  1.1132788504482911e-01 
 1.1278459565408878e-01  1.1426036712845224e-01  1.1575544887681112e-01  1.1727009357153935e-01 
 1.1880455719119555e-01  1.2035909906378318e-01  1.2193398191057890e-01  1.2352947189053219e-01 
 1.2514583864524709e-01  1.2678335534455218e-01  1.2844229873266719e-01  1.3012294917497313e-01 
 1.3182559070539482e-01  1.3355051107440338e-01  1.3529800179764667e-01  1.3706835820521610e-01 
 1.3886187949155812e-01  1.4067886876603897e-01  1.4251963310417054e-01  1.4438448359950729e-01 
 1.4627373541622135e-01  1.4818770784236643e-01  1.5012672434383820e-01  1.5209111261903993e-01 
 1.5408120465426584e-01  1.5609733677980650e-01  1.5813984972678974e-01  1.6020908868476491e-01 
 1.6230540336004093e-01  1.6442914803478739e-01  1.6658068162690898e-01  1.6876036775070366e-01 
 1.7096857477831423e-01  1.7320567590198407e-01  1.7547204919712758e-01  1.7776807768622588e-01 
 1.8009414940355839e-01  1.8245065746078160e-01  1.8483800011336587e-01  1.8725658082790164e-01 
 1.8970680835028644e-01  1.9218909677480267e-01  1.9470386561410244e-01  1.9725153987010507e-01 
 1.9983255010582349e-01  2.0244733251813057e-01  2.0509632901147748e-01  2.0777998727257643e-01 
 2.1049876084606089e-01  2.1325310921113580e-01  2.1604349785923033e-01  2.1887039837266759e-01 
 2.2173428850436250e-01  2.2463565225856374e-01  2.2757497997265125e-01  2.3055276840000455e-01 
 2.3356952079395538e-01  2.3662574699283848e-01  2.3972196350615591e-01  2.4285869360186696e-01 
 2.4603646739482390e-01  2.4925582193636114e-01  2.5251730130505862e-01  2.5582145669869227e-01 
 2.5916884652738775e-01  2.6256003650799337e-01  2.6599559975968706e-01  2.6947611690083545e-01 
 2.7300217614711930e-01  2.7657437341094354e-01  2.8019331240214806e-01  2.8385960473003569e-01 
 2.8757387000673607e-01  2.9133673595192117e-01  2.9514883849889179e-01  2.9901082190205147e-01 
 3.0292333884578782e-01  3.0688705055477550e-01  3.1090262690572773e-01  3.1497074654060536e-01 
 3.1909209698130925e-01  3.2326737474587297e-01  3.2749728546617640e-01  3.3178254400719887e-01 
 3.3612387458783310e-01  3.4052201090327999e-01  3.4497769624904484e-01  3.4949168364655608e-01 
 3.5406473597042759e-01  3.5869762607738648e-01  3.6339113693688746e-01  3.6814606176343684e-01 
 3.7296320415064749e-01  3.7784337820704811e-01  3.8278740869367017e-01  3.8779613116343187e-01 
 3.9287039210235253e-01  3.9801104907260798e-01  4.0321897085746150e-01  4.0849503760809008e-01 
 4.1384014099233213e-01  4.1925518434538150e-01  4.2474108282245315e-01  4.3029876355344654e-01 
 4.3592916579963331e-01  4.4163324111239372e-01  4.4741195349403190e-01  4.5326627956069443e-01 
 4.5919720870742020e-01  4.6520574327535136e-01  4.7129289872113067e-01  4.7745970378851660e-01 
 4.8370720068224393e-01  4.9003644524415568e-01  4.9644850713164779e-01  5.0294446999844056e-01 
 5.0952543167771969e-01  5.1619250436767206e-01  5.2294681481945071e-01  5.2978950452759788e-01 
 5.3672172992296041e-01  5.4374466256812959e-01  5.5085948935543771e-01  5.5806741270754578e-01 
 5.6536965078065593e-01  5.7276743767038230e-01  5.8026202362031698e-01  5.8785467523332324e-01 
 5.9554667568559494e-01  6.0333932494351616e-01  6.1123393998335973e-01  6.1923185501385558e-01 
 6.2733442170168030e-01  6.3554300939988939e-01  6.4385900537934082e-01  6.5228381506314814e-01 
 6.6081886226419961e-01  6.6946558942578660e-01  6.7822545786537936e-01  6.8709994802159358e-01 
 6.9609055970438782e-01  7.0519881234853510e-01  7.1442624527041054e-01  7.2377441792814023e-01 
 7.3324491018515303e-01  7.4283932257718088e-01  7.5255927658275357e-01  7.6240641489723282e-01 
 7.7238240171043204e-01  7.8248892298786388e-01  7.9272768675567984e-01  8.0310042338932619e-01 
 8.1360888590598202e-01  8.2425485026082379e-01  8.3504011564716585e-01  8.4596650480052882e-01 
 8.5703586430668499e-01  8.6825006491373724e-01  8.7961100184827912e-01  8.9112059513569264e-01 
 9.0278078992463717e-01  9.1459355681578480e-01  9.2656089219485527e-01  9.3868481857001118e-01 
 9.5096738491366639e-01  9.6341066700876621e-01  9.7601676779960267e-01  9.8878781774721003e-01 
 1.0017259751894274e+00  1.0148334267056565e+00  1.0281123874864004e+00  1.0415651017076366e+00 
 1.0551938429100871e+00  1.0690009143834527e+00  1.0829886495556749e+00  1.0971594123872896e+00 
 1.1115155977709434e+00  1.1260596319361349e+00  1.1407939728592547e+00  1.1557211106789878e+00 
 1.1708435681171534e+00  1.1861639009050517e+00  1.2016846982153884e+00  1.2174085830998487e+00 
 1.2333382129324055e+00  1.2494762798584100e+00  1.2658255112495851e+00  1.2823886701649483e+00 
 1.2991685558177786e+00  1.3161680040486887e+00  1.3333898878048907e+00  1.3508371176257283e+00 
 1.3685126421345677e+00  1.3864194485371204e+00  1.4045605631262883e+00  1.4229390517936145e+00 
 1.4415580205474263e+00  1.4604206160377584e+00  1.4795300260881430e+00  1.4988894802343611e+00 
 1.5185022502702410e+00  1.5383716508005985e+00  1.5585010398014176e+00  1.5788938191873438e+00 
 1.5995534353866325e+00  1.6204833799235936e+00  1.6416871900086687e+00  1.6631684491362297e+00 
 1.6849307876901967e+00  1.7069778835575817e+00  1.7293134627500601e+00  1.7519413000336768e+00 
 1.7748652195667889e+00  1.7980890955463589e+00  1.8216168528627017e+00  1.8454524677628030e+00 
 1.8695999685223117e+00  1.8940634361263293e+00  1.9188470049591064e+00  1.9439548635027633e+00 
 1.9693912550451560e+00  1.9951604783969898e+00  2.0212668886183476e+00  2.0477148977546928e+00 
 2.0745089755825177e+00  2.1016536503647485e+00  2.1291535096160299e+00  2.1570132008780272e+00 
 2.1852374325048736e+00  2.2138309744588898e+00  2.2427986591167208e+00  2.2721453820860207e+00 
 2.3018761030328192e+00  2.3319958465197175e+00  2.3625097028550539e+00  2.3934228289531743e+00 
 2.4247404492059657e+00  2.4564678563657893e+00  2.4886104124399746e+00  2.5211735495969916e+00 
 2.5541627710845267e+00  2.5875836521595303e+00  2.6214418410304479e+00  2.6557430598117850e+00 
 2.6904931054911558e+00  2.7256978509089884e+00  2.7613632457510491e+00  2.7974953175539534e+00 
 2.8341001727238337e+00  2.8711839975683371e+00  2.9087530593421249e+00  2.9468137073060556e+00 
 2.9853723738002222e+00  3.0244355753310370e+00  3.0640099136725309e+00  3.1041020769820760e+00 
 3.1447188409306999e+00  3.1858670698481708e+00  3.2275537178831177e+00  3.2697858301782770e+00 
 3.3125705440611424e+00  3.3559150902501931e+00  3.3998267940768989e+00  3.4443130767237196e+00 
 3.4893814564783057e+00  3.5350395500041012e+00  3.5812950736275844e+00  3.6281558446423388e+00 
 3.6756297826302000e+00  3.7237249107996795e+00  3.7724493573419107e+00  3.8218113568043264e+00 
 3.8718192514823224e+00  3.9224814928291241e+00  3.9738066428841061e+00  4.0258033757197724e+00 
 4.0784804789077373e+00  4.1318468550038157e+00  4.1859115230525852e+00  4.2406836201116240e+00 
 4.2961724027956993e+00  4.3523872488411541e+00  4.4093376586907640e+00  4.4670332570993443e+00 
 4.5254837947603450e+00  4.5846991499537495e+00  4.6446893302155230e+00  4.7054644740289140e+00 
 4.7670348525378756e+00  4.8294108712829207e+00  4.8926030719596776e+00  4.9566221342004644e+00 
 5.0214788773791801e+00  5.0871842624397701e+00  5.1537493937487024e+00  5.2211855209716003e+00 
 5.2895040409744691e+00  5.3587164997497938e+00  5.4288345943678404e+00  5.4998701749534860e+00 
 5.5718352466889218e+00  5.6447419718425564e+00  5.7186026718244625e+00  5.7934298292687352e+00 
 5.8692360901430787e+00  5.9460342658860048e+00  6.0238373355720034e+00  6.1026584481050277e+00 
 6.1825109244407006e+00  6.2634082598375773e+00  6.3453641261378966e+00  6.4283923740781015e+00 
 6.5125070356297208e+00  6.5977223263707598e+00  6.6840526478881719e+00  6.7715125902117697e+00 
 6.8601169342799659e+00  6.9498806544378002e+00  7.0408189209676229e+00  7.1329471026529170e+00 
 7.2262807693756645e+00  7.3208356947476849e+00  7.4166278587764136e+00  7.5136734505655678e+00 
 7.6119888710511372e+00  7.7115907357731830e+00  7.8124958776839071e+00  7.9147213499924574e+00 
 8.0182844290469699e+00  8.1232026172542735e+00  8.2294936460378985e+00  8.3371754788346966e+00 
 8.4462663141307015e+00  8.5567845885367237e+00  8.6687489799041870e+00  8.7821784104817127e+00 
 8.8970920501130450e+00  9.0135093194767855e+00  9.1314498933685417e+00  9.2509337040260124e+00 
 9.3719809444975795e+00  9.4946120720549878e+00  9.6188478116506690e+00  9.7447091594203066e+00 
 9.8722173862312399e+00  1.0001394041277276e+01  1.0132260955720591e+01  1.0264840246381167e+01 
 1.0399154319474695e+01  1.0535225874399206e+01  1.0673077907571349e+01  1.0812733716312827e+01 
 1.0954216902787717e+01  1.1097551377991273e+01  1.1242761365790955e+01  1.1389871407020316e+01 
 1.1538906363626458e+01  1.1689891422871767e+01  1.1842852101590612e+01  1.1997814250501763e+01 
 1.2154804058577204e+01  1.2313848057468157e+01  1.2474973125988969e+01  1.2638206494659718e+01 
 1.2803575750308241e+01  1.2971108840732292e+01  1.3140834079422920e+01  1.3312780150349427e+01 
 1.3486976112807048e+01  1.3663451406328043e+01  1.3842235855657041e+01  1.4023359675791506e+01 
 1.4206853477088133e+01  1.4392748270436075e+01  1.4581075472497853e+01  1.4771866911018851e+01 
 1.4965154830206284e+01  1.5160971896178539e+01  1.5359351202485827e+01  1.5560326275703078e+01 
 1.5763931081096006e+01  1.5970200028361347e+01  1.6179167977442074e+01  1.6390870244418974e+01 
 1.6605342607479038e+01  1.6822621312962085e+01  1.7042743081486492e+01  1.7265745114155045e+01 
 1.7491665098842034e+01  1.7720541216562587e+01  1.7952412147925337e+01  1.8187317079669562e+01 
 1.8425295711287831e+01  1.8666388261735289e+01  1.8910635476226794e+01  1.9158078633122919e+01 
 1.9408759550906122e+01  1.9662720595248160e+01  1.9920004686169968e+01  2.0180655305295311e+01 
 2.0444716503199128e+01  2.0712232906852385e+01  2.0983249727164022e+01  2.1257812766621715e+01 
 2.1535968427032614e+01  2.1817763717365370e+01  2.2103246261694753e+01  2.2392464307250226e+01 
 2.2685466732569854e+01  2.2982303055760887e+01  2.3283023442868455e+01  2.3587678716353714e+01 
 2.3896320363682992e+01  2.4209000546029291e+01  2.4525772107087629e+01  2.4846688582005775e+01 
 2.5171804206431801e+01  2.5501173925680092e+01  2.5834853404017036e+01  2.6172899034068710e+01 
 2.6515367946351173e+01  2.6862318018925713e+01  2.7213807887180362e+01  2.7569896953739448e+01 
 2.7930645398502730e+01  2.8296114188815999e+01  2.8666365089774668e+01  2.9041460674662229e+01 
 2.9421464335525297e+01  2.9806440293886993e+01  3.0196453611600575e+01  3.0591570201844998e+01 
 3.0991856840264422e+01  3.1397381176253475e+01  3.1808211744390118e+01  3.2224417976018245e+01 
 3.2646070210981485e+01  3.3073239709511192e+01  3.3505998664269320e+01  3.3944420212549225e+01 
 3.4388578448636046e+01  3.4838548436328843e+01  3.5294406221626488e+01  3.5756228845579685e+01 
 3.6224094357311074e+01  3.6698081827205705e+01  3.7178271360274110e+01  3.7664744109690275e+01 
 3.8157582290506724e+01  3.8656869193549007e+01  3.9162689199492050e+01  3.9675127793120900e+01 
 4.0194271577777286e+01  4.0720208289996719e+01  4.1253026814335200e+01  4.1792817198391347e+01 
 4.2339670668025114e+01  4.2893679642774146e+01  4.3454937751474070e+01  4.4023539848080787e+01 