  <PP_INFO>

############################################################
#    Opium Parameter File                                  #
############################################################
#-----------------------------------------------------------
#Command line   : opium Ca Ca.log ae ps nl tc2 ke upf rpt 
 
#Opium version  : 4.1 
#Compile Host   : andes-login5.olcf.ornl.gov 
#Compile OS     : Linux 4.18.0-348.12.2.el8_5.x86_64 x86_64 
#Compile Date   : Thu Jun 30 15:38:05 EDT 2022 
#-----------------------------------------------------------
#Execution Host : andes-login6.olcf.ornl.gov 
#Execution Date : Thu Jun 30 16:37:11 2022
 
#-----------------------------------------------------------
############################################################
[Atom]
Ca
8            
100   2.00  -
200   2.00  -
210   6.00  -
300   2.00  -
310   5.00  -
320   0.00  -
400   1.00  -
410   0.00  -

[Pseudo]
5 1.47121 1.85908 1.67545 1.47121 1.85908
g

[Gaussinfo]
10 3
2 2 4
2 11.240167 149.302623 
2  5.353612  23.759329 
2 13.066548  99.204114 
2  4.027485  13.452161 
1  7.041332  10.000000 
3 14.014449  70.413317 
2 13.769362 -92.872980 
2  4.717260  -5.753568 

[KBdesign]
s

[Relativity]
nrl

[XC]
pbe

[Configs]
11

300  2.00 -
310  6.00 -
320  0.00 -
400  2.00 -
410  0.00 -

300  2.00 -
310  6.00 -
320  1.00 -
400  1.00 -
410  0.00 -

300  2.00 -
310  6.00 -
320  0.00 -
400  1.00 -
410  1.00 -

300  2.00 -
310  6.00 -
320  2.00 -
400  0.00 -
410  0.00 -

300  2.00 -
310  6.00 -
320  0.00 -
400  1.00 -
410  0.00 -

300  2.00 -
310  6.00 -
320  0.00 -
400  0.00 -
410  1.00 -

300  2.00 -
310  6.00 -
320  1.00 -
400  0.00 -
410  0.00 -

300  2.00 -
310  5.00 -
320  0.00 -
400  0.00 -
410  0.00 -

300  2.00 -
310  4.00 -
320  0.00 -
400  0.00 -
410  0.00 -

300  2.00 -
310  3.00 -
320  0.00 -
400  0.00 -
410  0.00 -

300  2.00 -
310  2.00 -
320  0.00 -
400  0.00 -
410  0.00 -


############################################################
  </PP_INFO>



<PP_HEADER>
   0         Version Number
   Ca        Element
   NC        Norm - Conserving pseudopotential
    F      Nonlinear Core Correction
SLA  PW   PBE  PBE     PBE  Exchange-Correlation functional
 10          Z valence
 0          Total energy
 0.000000   0.000000     Suggested cutoff for wfc and rho
 2           Max angular momentum component
 1153           Number of points in mesh
 3  2     Number of Wavefuncitons, Number of Projectors
 Wavefunctions         nl  l   occ
                       S  0  2.000000
                       P  1  5.000000
                      3D  2  0.000000
</PP_HEADER>
<PP_MESH>
  <PP_R>
 3.6840314986403849e-05  3.7322365621494533e-05  3.7810723825206084e-05  3.8305472131237284e-05 
 3.8806694153229384e-05  3.9314474598897098e-05  3.9828899284344249e-05  4.0350055148567094e-05 
 4.0878030268147076e-05  4.1412913872136036e-05  4.1954796357136130e-05  4.2503769302577055e-05 
 4.3059925486193204e-05  4.3623358899703304e-05  4.4194164764695306e-05  4.4772439548718892e-05 
 4.5358280981588950e-05  4.5951788071901987e-05  4.6553061123768881e-05  4.7162201753766485e-05 
 4.7779312908111075e-05  4.8404498880056521e-05  4.9037865327520086e-05  4.9679519290938907e-05 
 5.0329569211359916e-05  5.0988124948766889e-05  5.1655297800646874e-05  5.2331200520799771e-05 
 5.3015947338394010e-05  5.3709653977271517e-05  5.4412437675505356e-05  5.5124417205213217e-05 
 5.5845712892630261e-05  5.6576446638444310e-05  5.7316741938397673e-05  5.8066723904158002e-05 
 5.8826519284462573e-05  5.9596256486539015e-05  6.0376065597806530e-05  6.1166078407860964e-05 
 6.1966428430747553e-05  6.2777250927525000e-05  6.3598682929125113e-05  6.4430863259511256e-05 
 6.5273932559139960e-05  6.6128033308729433e-05  6.6993309853339195e-05  6.7869908426764730e-05 
 6.8757977176251326e-05  6.9657666187531356e-05  7.0569127510189115e-05  7.1492515183357400e-05 
 7.2427985261750756e-05  7.3375695842038972e-05  7.4335807089565752e-05  7.5308481265417076e-05 
 7.6293882753843720e-05  7.7292178090042596e-05  7.8303535988301606e-05  7.9328127370512571e-05 
 8.0366125395057764e-05  8.1417705486073880e-05  8.2483045363099158e-05  8.3562325071108416e-05 
 8.4655727010941108e-05  8.5763435970127484e-05  8.6885639154118079e-05  8.8022526217921957e-05 
 8.9174289298158844e-05  9.0341123045530505e-05  9.1523224657717462e-05  9.2720793912705698e-05 
 9.3934033202549636e-05  9.5163147567576902e-05  9.6408344731040591e-05  9.7669835134225002e-05 
 9.8947831972010829e-05  1.0024255122890527e-04  1.0155421171554437e-04  1.0288303510567222e-04 
 1.0422924597360453e-04  1.0559307183218205e-04  1.0697474317122094e-04  1.0837449349646601e-04 
 1.0979255936905376e-04  1.1122918044549179e-04  1.1268459951816132e-04  1.1415906255634975e-04 
 1.1565281874781974e-04  1.1716612054092301e-04  1.1869922368726437e-04  1.2025238728492453e-04 
 1.2182587382224817e-04  1.2341994922220512e-04  1.2503488288733214e-04  1.2667094774526216e-04 
 1.2832842029485023e-04  1.3000758065290213e-04  1.3170871260151506e-04  1.3343210363603710e-04 
 1.3517804501365493e-04  1.3694683180261690e-04  1.3873876293210024e-04  1.4055414124273076e-04 
 1.4239327353776377e-04  1.4425647063493453e-04  1.4614404741898683e-04  1.4805632289488992e-04 
 1.4999362024175063e-04  1.5195626686743149e-04  1.5394459446388360e-04  1.5595893906320311e-04 
 1.5799964109442180e-04  1.6006704544103975e-04  1.6216150149931226e-04  1.6428336323729824e-04 
 1.6643298925468164e-04  1.6861074284337565e-04  1.7081699204892013e-04  1.7305210973268180e-04 
 1.7531647363486905e-04  1.7761046643837079e-04  1.7993447583343068e-04  1.8228889458316805e-04 
 1.8467412058995503e-04  1.8709055696266398e-04  1.8953861208479322e-04  1.9201869968348505e-04 
 1.9453123889944646e-04  1.9707665435778505e-04  1.9965537623977179e-04  2.0226784035554194e-04 
 2.0491448821774927e-04  2.0759576711618165e-04  2.1031213019335470e-04  2.1306403652109366e-04 
 2.1585195117811766e-04  2.1867634532863933e-04  2.2153769630199236e-04  2.2443648767330159e-04 
 2.2737320934520817e-04  2.3034835763066454e-04  2.3336243533681164e-04  2.3641595184995581e-04 
 2.3950942322165550e-04  2.4264337225593527e-04  2.4581832859764093e-04  2.4903482882195104e-04 
 2.5229341652505924e-04  2.5559464241604266e-04  2.5893906440993444e-04  2.6232724772201149e-04 
 2.6575976496331780e-04  2.6923719623743681e-04  2.7276012923853056e-04  2.7632915935066110e-04 
 2.7994488974841206e-04  2.8360793149882638e-04  2.8731890366467830e-04  2.9107843340909643e-04 
 2.9488715610155570e-04  2.9874571542525588e-04  3.0265476348590662e-04  3.0661496092193412e-04 
 3.1062697701613091e-04  3.1469148980876546e-04  3.1880918621217380e-04  3.2298076212684877e-04 
 3.2720692255904866e-04  3.3148838173994511e-04  3.3582586324633004e-04  3.4022010012290163e-04 
 3.4467183500615076e-04  3.4918182024986825e-04  3.5375081805229448e-04  3.5837960058493268e-04 
 3.6306895012304787e-04  3.6781965917787312e-04  3.7263253063054603e-04  3.7750837786779676e-04 
 3.8244802491941351e-04  3.8745230659750502e-04  3.9252206863758582e-04  3.9765816784150643e-04 
 4.0286147222225725e-04  4.0813286115066289e-04  4.1347322550399870e-04  4.1888346781655095e-04 
 4.2436450243214736e-04  4.2991725565868333e-04  4.3554266592467041e-04  4.4124168393783224e-04 
 4.4701527284577764e-04  4.5286440839877355e-04  4.5879007911464977e-04  4.6479328644586135e-04 
 4.7087504494873554e-04  4.7703638245493390e-04  4.8327834024515981e-04  4.8960197322513643e-04 
 4.9600835010388863e-04  5.0249855357435572e-04  5.0907368049637211e-04  5.1573484208203692e-04 
 5.2248316408351242e-04  5.2931978698327856e-04  5.3624586618687708e-04  5.4326257221817831e-04 
 5.5037109091720196e-04  5.5757262364052691e-04  5.6486838746432392e-04  5.7225961539004381e-04 
 5.7974755655279780e-04  5.8733347643246466e-04  5.9501865706755954e-04  6.0280439727190024e-04 
 6.1069201285411266e-04  6.1868283684000350e-04  6.2677821969784600e-04  6.3497952956660946e-04 
 6.4328815248718249e-04  6.5170549263661394e-04  6.6023297256542312e-04  6.6887203343801412e-04 
 6.7762413527623633e-04  6.8649075720613113e-04  6.9547339770790833e-04  7.0457357486919197e-04 
 7.1379282664158178e-04  7.2313271110057017e-04  7.3259480670886023e-04  7.4218071258313058e-04 
 7.5189204876429012e-04  7.6173045649126597e-04  7.7169759847838090e-04  7.8179515919635375e-04 
 7.9202484515697945e-04  8.0238838520153182e-04  8.1288753079294539e-04  8.2352405631181368e-04 
 8.3429975935626574e-04  8.4521646104576307e-04  8.5627600632887416e-04  8.6748026429507455e-04 
 8.7883112849062759e-04  8.9033051723859879e-04  9.0198037396305598e-04  9.1378266751751362e-04 
 9.2573939251767317e-04  9.3785256967851712e-04  9.5012424615581697e-04  9.6255649589210444e-04 
 9.7515141996717524e-04  9.8791114695317506e-04  1.0008378332743348e-03  1.0139336635714082e-03 
 1.0272008510708852e-03  1.0406416379590308e-03  1.0542582957608192e-03  1.0680531257238283e-03 
 1.0820284592071541e-03  1.0961866580754182e-03  1.1105301150979275e-03  1.1250612543530578e-03 
 1.1397825316379279e-03  1.1546964348834376e-03  1.1698054845747318e-03  1.1851122341771693e-03 
 1.2006192705678652e-03  1.2163292144728762e-03  1.2322447209101146e-03  1.2483684796380484e-03 
 1.2647032156102792e-03  1.2812516894360640e-03  1.2980166978468659e-03  1.3150010741690096e-03 
 1.3322076888025174e-03  1.3496394497062168e-03  1.3672993028891883e-03  1.3851902329086528e-03 
 1.4033152633743655e-03  1.4216774574596154e-03  1.4402799184189048e-03  1.4591257901124129e-03 
 1.4782182575373104e-03  1.4975605473660342e-03  1.5171559284916025e-03  1.5370077125800631e-03 
 1.5571192546301768e-03  1.5774939535404173e-03  1.5981352526833951e-03  1.6190466404877924e-03 
 1.6402316510279193e-03  1.6616938646209806e-03  1.6834369084321545e-03  1.7054644570875968e-03 
 1.7277802332954569e-03  1.7503880084750278e-03  1.7732916033941239e-03  1.7964948888148000e-03 
 1.8200017861475168e-03  1.8438162681138725e-03  1.8679423594180008e-03  1.8923841374267540e-03 
 1.9171457328587907e-03  1.9422313304826720e-03  1.9676451698241032e-03  1.9933915458824206e-03 
 2.0194748098564565e-03  2.0458993698799039e-03  2.0726696917663010e-03  2.0997902997637596e-03 
 2.1272657773195821e-03  2.1551007678548700e-03  2.1832999755492738e-03  2.2118681661360104e-03 
 2.2408101677072840e-03  2.2701308715302451e-03  2.2998352328736263e-03  2.3299282718451950e-03 
 2.3604150742401590e-03  2.3913007924006848e-03  2.4225906460866543e-03  2.4542899233578126e-03 
 2.4864039814674653e-03  2.5189382477678679e-03  2.5518982206274607e-03  2.5852894703601035e-03 
 2.6191176401664791e-03  2.6533884470877935e-03  2.6881076829719870e-03  2.7232812154525591e-03 
 2.7589149889402152e-03  2.7950150256274872e-03  2.8315874265064959e-03  2.8686383724000368e-03 
 2.9061741250061496e-03  2.9442010279563673e-03  2.9827255078877899e-03  3.0217540755292207e-03 
 3.0612933268014827e-03  3.1013499439321488e-03  3.1419306965848521e-03  3.1830424430033775e-03 
 3.2246921311707192e-03  3.2668867999833080e-03  3.3096335804406038e-03  3.3529396968502386e-03 
 3.3968124680489624e-03  3.4412593086395292e-03  3.4862877302437854e-03  3.5319053427721550e-03 
 3.5781198557097299e-03  3.6249390794191906e-03  3.6723709264607795e-03  3.7204234129295409e-03 
 3.7691046598100518e-03  3.8184228943489045e-03  3.8683864514451180e-03  3.9190037750587601e-03 
 3.9702834196379952e-03  4.0222340515648075e-03  4.0748644506196407e-03  4.1281835114651989e-03 
 4.1822002451496762e-03  4.2369237806296209e-03  4.2923633663127800e-03  4.3485283716210863e-03 
 4.4054282885741146e-03  4.4630727333932569e-03  4.5214714481268880e-03  4.5806343022967927e-03 
 4.6405712945661376e-03  4.7012925544292778e-03  4.7628083439236416e-03  4.8251290593640753e-03 
 4.8882652330998139e-03  4.9522275352944910e-03  5.0170267757294138e-03  5.0826739056304433e-03 
 5.1491800195187804e-03  5.2165563570859630e-03  5.2848143050934059e-03  5.3539653992967749e-03 
 5.4240213263955801e-03  5.4949939260082415e-03  5.5668951926730170e-03  5.6397372778751020e-03 
 5.7135324921002680e-03  5.7882933069153594e-03  5.8640323570760171e-03  5.9407624426619909e-03 
 6.0184965312403572e-03  6.0972477600571093e-03  6.1770294382573494e-03  6.2578550491345824e-03 
 6.3397382524094199e-03  6.4226928865381049e-03  6.5067329710512449e-03  6.5918727089231462e-03 
 6.6781264889721565e-03  6.7655088882923849e-03  6.8540346747173004e-03  6.9437188093155076e-03 
 7.0345764489192124e-03  7.1266229486857567e-03  7.2198738646926820e-03  7.3143449565667377e-03 
 7.4100521901473027e-03  7.5070117401846480e-03  7.6052399930734938e-03  7.7047535496223753e-03 
 7.8055692278592020e-03  7.9077040658735477e-03  8.0111753246961247e-03  8.1160004912159498e-03 
 8.2221972811356552e-03  8.3297836419654984e-03  8.4387777560565314e-03  8.5491980436734373e-03 
 8.6610631661076434e-03  8.7743920288310909e-03  8.8892037846913120e-03  9.0055178371483101e-03 
 9.1233538435537900e-03  9.2427317184732953e-03  9.3636716370518180e-03  9.4861940384234570e-03 
 9.6103196291656388e-03  9.7360693867986400e-03  9.8634645633307975e-03  9.9925266888501590e-03 
 1.0123277575163115e-02  1.0255739319480654e-02  1.0389934308152837e-02  1.0525885220452145e-02 
 1.0663615032406346e-02  1.0803147020681449e-02  1.0944504766515583e-02  1.1087712159704237e-02 
 1.1232793402637709e-02  1.1379773014391362e-02  1.1528675834869407e-02  1.1679527029002910e-02 
 1.1832352091002717e-02  1.1987176848668058e-02  1.2144027467751454e-02  1.2302930456380859e-02 
 1.2463912669539556e-02  1.2627001313604724e-02  1.2792223950945378e-02  1.2959608504580472e-02 
 1.3129183262897959e-02  1.3300976884435605e-02  1.3475018402724342e-02  1.3651337231194976e-02 
 1.3829963168149186e-02  1.4010926401795461e-02  1.4194257515351003e-02  1.4379987492210344e-02 
 1.4568147721181628e-02  1.4758770001791396e-02  1.4951886549658766e-02  1.5147530001939977e-02 
 1.5345733422844090e-02  1.5546530309220994e-02  1.5749954596222401e-02  1.5956040663036984e-02 
 1.6164823338700545e-02  1.6376337907982187e-02  1.6590620117347549e-02  1.6807706181000019e-02 
 1.7027632787001062e-02  1.7250437103470510e-02  1.7476156784868149e-02  1.7704829978357376e-02 
 1.7936495330252152e-02  1.8171191992548335e-02  1.8408959629540457e-02  1.8649838424525073e-02 
 1.8893869086591852e-02  1.9141092857503521e-02  1.9391551518665742e-02  1.9645287398188389e-02 
 1.9902343378039013e-02  2.0162762901290026e-02  2.0426589979460685e-02  2.0693869199955132e-02 
 2.0964645733597784e-02  2.1238965342267300e-02  2.1516874386630466e-02  2.1798419833977199e-02 
 2.2083649266158224e-02  2.2372610887626446e-02  2.2665353533583659e-02  2.2961926678233779e-02 
 2.3262380443144128e-02  2.3566765605716085e-02  2.3875133607766594e-02  2.4187536564221960e-02 
 2.4504027271925334e-02  2.4824659218559621e-02  2.5149486591686938e-02  2.5478564287906458e-02 
 2.5811947922132077e-02  2.6149693836991478e-02  2.6491859112348127e-02  2.6838501574947955e-02 
 2.7189679808192195e-02  2.7545453162038068e-02  2.7905881763029172e-02  2.8271026524456920e-02 
 2.8640949156655084e-02  2.9015712177428949e-02  2.9395378922621007e-02  2.9780013556814828e-02 
 3.0169681084179067e-02  3.0564447359453316e-02  3.0964379099077628e-02  3.1369543892467905e-02 
 3.1780010213438556e-02  3.2195847431774775e-02  3.2617125824956197e-02  3.3043916590033952e-02 
 3.3476291855663136e-02  3.3914324694292744e-02  3.4358089134515095e-02  3.4807660173576720e-02 
 3.5263113790053278e-02  3.5724526956689984e-02  3.6191977653410194e-02  3.6665544880494241e-02 
 3.7145308671930631e-02  3.7631350108942016e-02  3.8123751333688054e-02  3.8622595563147739e-02 
 3.9127967103183073e-02  3.9639951362787203e-02  4.0158634868518554e-02  4.0684105279124125e-02 
 4.1216451400353973e-02  4.1755763199969612e-02  4.2302131822948813e-02  4.2855649606889257e-02 
 4.3416410097613892e-02  4.3984508064980249e-02  4.4560039518896963e-02  4.5143101725549584e-02 
 4.5733793223838762e-02  4.6332213842033634e-02  4.6938464714642955e-02  4.7552648299507130e-02 
 4.8174868395113826e-02  4.8805230158140193e-02  4.9443840121224415e-02  5.0090806210970243e-02 
 5.0746237766186683e-02  5.1410245556366571e-02  5.2082941800406846e-02  5.2764440185573823e-02 
 5.3454855886716633e-02  5.4154305585732032e-02  5.4862907491283940e-02  5.5580781358780876e-02 
 5.6308048510615070e-02  5.7044831856666159e-02  5.7791255915073246e-02  5.8547446833278761e-02 
 5.9313532409347683e-02  6.0089642113565732e-02  6.0875907110320135e-02  6.1672460280266794e-02 
 6.2479436242787179e-02  6.3296971378739686e-02  6.4125203853508131e-02  6.4964273640351997e-02 
 6.5814322544062345e-02  6.6675494224927093e-02  6.7547934223009976e-02  6.8431789982747168e-02 
 6.9327210877865780e-02  7.0234348236628177e-02  7.1153355367407092e-02  7.2084387584594983e-02 
 7.3027602234852468e-02  7.3983158723700398e-02  7.4951218542459730e-02  7.5931945295543868e-02 
 7.6925504728108343e-02  7.7932064754062072e-02  7.8951795484445031e-02  7.9984869256177760e-02 
 8.1031460661186522e-02  8.2091746575909730e-02  8.3165906191190561e-02  8.4254121042560609e-02 
 8.5356575040919827e-02  8.6473454503617847e-02  8.7604948185942250e-02  8.8751247313018242e-02 
 8.9912545612126693e-02  9.1089039345444156e-02  9.2280927343211722e-02  9.3488411037337821e-02 
 9.4711694495440701e-02  9.5950984455336299e-02  9.7206490359977471e-02  9.8478424392850428e-02 
 9.9767001513833858e-02  1.0107243949552824e-01  1.0239495896005954e-01  1.0373478341636502e-01 
 1.0509213929796668e-01  1.0646725600123916e-01  1.0786036592417821e-01  1.0927170450567654e-01 
 1.1070151026531357e-01  1.1215002484366574e-01  1.1361749304314439e-01  1.1510416286936798e-01 
 1.1661028557307571e-01  1.1813611569258886e-01  1.1968191109682944e-01  1.2124793302889991e-01 
 1.2283444615023409e-01  1.2444171858532552e-01  1.2607002196704117e-01  1.2771963148252813e-01 
 1.2939082591972070e-01  1.3108388771445639e-01  1.3279910299820816e-01  1.3453676164644132e-01 
 1.3629715732760325e-01  1.3808058755275399e-01  1.3988735372584626e-01  1.4171776119466367e-01 
 1.4357211930242492e-01  1.4545074144006384e-01  1.4735394509919322e-01  1.4928205192576074e-01 
 1.5123538777440945e-01  1.5321428276354690e-01  1.5521907133113616e-01  1.5725009229121684e-01 
 1.5930768889116514e-01  1.6139220886970376e-01  1.6350400451567043e-01  1.6564343272755561e-01 
 1.6781085507381913e-01  1.7000663785399620e-01  1.7223115216060284e-01  1.7448477394185141e-01 
 1.7676788406518679e-01  1.7908086838165388e-01  1.8142411779110723e-01  1.8379802830827424e-01 
 1.8620300112968277e-01  1.8863944270146304e-01  1.9110776478803998e-01  1.9360838454172108e-01 
 1.9614172457319640e-01  1.9870821302296088e-01  2.0130828363367104e-01  2.0394237582344843e-01 
 2.0661093476014258e-01  2.0931441143656521e-01  2.1205326274670916e-01  2.1482795156296458e-01 
 2.1763894681434545e-01  2.2048672356573973e-01  2.2337176309819631e-01  2.2629455299026291e-01 
 2.2925558720038777e-01  2.3225536615039996e-01  2.3529439681008230e-01  2.3837319278284846e-01 
 2.4149227439254622e-01  2.4465216877139132e-01  2.4785340994905458e-01  2.5109653894291439e-01 
 2.5438210384948950e-01  2.5771065993706926e-01  2.6108276973955469e-01  2.6449900315152830e-01 
 2.6795993752456776e-01  2.7146615776481947e-01  2.7501825643184913e-01  2.7861683383878583e-01 
 2.8226249815377630e-01  2.8595586550276686e-01  2.8969756007362990e-01  2.9348821422165366e-01 
 2.9732846857641176e-01  3.0121897215002924e-01  3.0516038244687044e-01  3.0915336557465634e-01 
 3.1319859635703928e-01  3.1729675844764949e-01  3.2144854444563437e-01  3.2565465601270921e-01 
 3.2991580399173970e-01  3.3423270852687642e-01  3.3860609918526030e-01  3.4303671508032180e-01 
 3.4752530499669243e-01  3.5207262751675128e-01  3.5667945114882749e-01  3.6134655445707936e-01 
 3.6607472619307424e-01  3.7086476542908908e-01  3.7571748169315605e-01  3.8063369510587253e-01 
 3.8561423651900684e-01  3.9065994765591211e-01  3.9577168125377965e-01  4.0095030120775393e-01 
 4.0619668271693293e-01  4.1151171243227846e-01  4.1689628860646266e-01  4.2235132124567498e-01 
 4.2787773226341469e-01  4.3347645563629733e-01  4.3914843756189847e-01  4.4489463661866335e-01 
 4.5071602392790899e-01  4.5661358331794616e-01  4.6258831149034868e-01  4.6864121818839788e-01 
 4.7477332636773328e-01  4.8098567236923034e-01  4.8727930609415032e-01  4.9365529118157203e-01 
 5.0011470518815082e-01  5.0665863977022785e-01  5.1328820086832250e-01  5.2000450889403960e-01 
 5.2680869891942073e-01  5.3370192086877499e-01  5.4068533971301824e-01  5.4776013566655624e-01 
 5.5492750438674421e-01  5.6218865717595468e-01  5.6954482118629113e-01  5.7699723962697991e-01 
 5.8454717197447492e-01  5.9219589418531249e-01  5.9994469891175184e-01  6.0779489572023260e-01 
 6.1574781131270095e-01  6.2380478975082032e-01  6.3196719268312340e-01  6.4023639957513301e-01 
 6.4861380794249524e-01  6.5710083358716354e-01  6.6569891083667154e-01  6.7440949278653872e-01 
 6.8323405154584660e-01  6.9217407848602908e-01  7.0123108449291682e-01  7.1040660022208157e-01 
 7.1970217635752043e-01  7.2911938387372455e-01  7.3865981430117800e-01  7.4832507999533004e-01 
 7.5811681440908874e-01  7.6803667236887274e-01  7.7808633035428854e-01  7.8826748678145497e-01 
 7.9858186229004036e-01  8.0903120003405482e-01  8.1961726597644746e-01  8.3034184918755860e-01 
 8.4120676214747658e-01  8.5221384105235065e-01  8.6336494612471404e-01  8.7466196192786472e-01 
 8.8610679768436107e-01  8.9770138759868612e-01  9.0944769118413160e-01  9.2134769359396052e-01 
 9.3340340595690330e-01  9.4561686571704351e-01  9.5799013697815116e-01  9.7052531085251559e-01 
 9.8322450581435805e-01  9.9608986805785293e-01  1.0091235718598395e+00  1.0223278199472823e+00 
 1.0357048438695353e+00  1.0492569043754798e+00  1.0629862917955968e+00  1.0768953264290375e+00 
 1.0909863589357598e+00  1.1052617707337951e+00  1.1197239744017147e+00  1.1343754140863593e+00 
 1.1492185659159078e+00  1.1642559384183473e+00  1.1794900729454214e+00  1.1949235441021240e+00 
 1.2105589601818152e+00  1.2263989636070227e+00  1.2424462313760278e+00  1.2587034755152779e+00 
 1.2751734435377258e+00  1.2918589189071681e+00  1.3087627215086546e+00  1.3258877081250580e+00 
 1.3432367729198755e+00  1.3608128479263502e+00  1.3786189035429905e+00  1.3966579490355759e+00 
 1.4149330330457295e+00  1.4334472441061450e+00  1.4522037111625579e+00  1.4712056041025423e+00 
 1.4904561342912319e+00  1.5099585551140464e+00  1.5297161625265254e+00  1.5497322956113411e+00 
 1.5700103371426279e+00  1.5905537141576682e+00  1.6113658985360728e+00  1.6324504075865369e+00 
 1.6538108046412732e+00  1.6754506996582232e+00  1.6973737498311503e+00  1.7195836602077126e+00 
 1.7420841843156256e+00  1.7648791247970166e+00  1.7879723340510814e+00  1.8113677148851484e+00 
 1.8350692211742607e+00  1.8590808585293943e+00  1.8834066849744111e+00  1.9080508116318788e+00 
 1.9330174034178615e+00  1.9583106797457870e+00  1.9839349152395580e+00  2.0098944404559616e+00 
 2.0361936426165457e+00  2.0628369663490695e+00  2.0898289144386579e+00  2.1171740485887813e+00 
 2.1448769901921958e+00  2.1729424211119670e+00  2.2013750844727196e+00  2.2301797854622336e+00 
 2.2593613921435343e+00  2.2889248362776060e+00  2.3188751141568709e+00  2.3492172874495756e+00 
 2.3799564840552239e+00  2.4110978989712040e+00  2.4426467951707607e+00  2.4746085044924326e+00 
 2.5069884285411717e+00  2.5397920396012093e+00  2.5730248815608898e+00  2.6066925708496025e+00 
 2.6408007973869694e+00  2.6753553255444560e+00  2.7103619951195639e+00  2.7458267223227706e+00 
 2.7817555007773835e+00  2.8181544025324747e+00  2.8550295790890741e+00  2.8923872624397862e+00 
 2.9302337661220119e+00  2.9685754862849523e+00  3.0074189027705716e+00  3.0467705802087073e+00 
 3.0866371691265120e+00  3.1270254070723889e+00  3.1679421197546840e+00  3.2093942221952263e+00 
 3.2513887198979887e+00  3.2939327100330331e+00  3.3370333826359513e+00  3.3806980218229983e+00 
 3.4249340070221210e+00  3.4697488142201047e+00  3.5151500172260293e+00  3.5611452889512627e+00 
 3.6077424027061986e+00  3.6549492335139684e+00  3.7027737594413339e+00  3.7512240629470055e+00 
 3.8003083322475910e+00  3.8500348627014285e+00  3.9004120582105237e+00  3.9514484326408081e+00 
 4.0031526112610383e+00  4.0555333322004632e+00  4.1085994479255898e+00  4.1623599267362810e+00 
 4.2168238542814098e+00  4.2720004350943608e+00  4.3278989941486170e+00  4.3845289784337034e+00 
 4.4418999585517467e+00  4.5000216303349383e+00  4.5589038164841424e+00  4.6185564682289648e+00 
 4.6789896670095290e+00  4.7402136261802656e+00  4.8022386927359939e+00  4.8650753490605876e+00 
 4.9287342146985313e+00  4.9932260481496140e+00  5.0585617486871950e+00  5.1247523582001708e+00 
 5.1918090630590878e+00  5.2597431960066716e+00  5.3285662380730772e+00  5.3982898205162195e+00 
 5.4689257267874813e+00  5.5404858945231430e+00  5.6129824175618719e+00  5.6864275479886093e+00 
 5.7608336982052046e+00  5.8362134430281376e+00  5.9125795218136954e+00  5.9899448406109510e+00 
 6.0683224743429180e+00  6.1477256690162436e+00  6.2281678439598256e+00  6.3096625940926669e+00 
 6.3922236922215188e+00  6.4758650913684663e+00  6.5606009271290402e+00  6.6464455200611638e+00 
 6.7334133781053627e+00  6.8215191990366337e+00  6.9107778729484197e+00  7.0012044847690529e+00 
 7.0928143168111557e+00  7.1856228513543856e+00  7.2796457732619704e+00  7.3748989726314971e+00 
 7.4713985474803719e+00  7.5691608064664235e+00  7.6682022716441027e+00  7.7685396812567520e+00 
 7.8701899925654235e+00  7.9731703847146393e+00  8.0774982616357871e+00  8.1831912549883796e+00 
 8.2902672271398536e+00  8.3987442741843488e+00  8.5086407290010069e+00  8.6199751643522546e+00 
 8.7327663960226509e+00  8.8470334859988053e+00  8.9627957456908902e+00  9.0800727391963161e+00 
 9.1988842866061180e+00  9.3192504673545908e+00  9.4411916236127631e+00  9.5647283637262781e+00 
 9.6898815656982400e+00  9.8166723807176588e+00  9.9451222367340684e+00  1.0075252842078822e+01 
 1.0207086189133962e+01  1.0340644558048918e+01  1.0475950520505922e+01  1.0613026943534663e+01 
 1.0751896993376894e+01  1.0892584139401560e+01  1.1035112158071190e+01  1.1179505136960168e+01 
 1.1325787478825596e+01  1.1473983905731414e+01  1.1624119463226494e+01  1.1776219524577389e+01 
 1.1930309795056477e+01  1.2086416316286222e+01  1.2244565470640257e+01  1.2404783985702085e+01 
 1.2567098938782101e+01  1.2731537761493662e+01  1.2898128244389207e+01  1.3066898541656846e+01 
 1.3237877175878509e+01  1.3411093042850322e+01  1.3586575416466079e+01  1.3764353953664578e+01 
 1.3944458699441743e+01  1.4126920091928275e+01  1.4311768967533776e+01  1.4499036566158187e+01 
 1.4688754536471389e+01  1.4880954941261910e+01  1.5075670262855619e+01  1.5272933408605303e+01 
 1.5472777716452100e+01  1.5675236960559683e+01  1.5880345357022213e+01  1.6088137569646808e+01 
 1.6298648715811996e+01  1.6511914372402519e+01  1.6727970581821928e+01  1.6946853858083859e+01 
 1.7168601192982955e+01  1.7393250062346596e+01  1.7620838432368391e+01  1.7851404766024558e+01 
 1.8084988029574252e+01  1.8321627699144965e+01  1.8561363767404082e+01  1.8804236750317731e+01 
 1.9050287693998083e+01  1.9299558181640251e+01  1.9552090340549931e+01  1.9807926849263033e+01 
 2.0067110944758475e+01  2.0329686429765211e+01  2.0595697680165198e+01  2.0865189652492887e+01 
 2.1138207891533018e+01  2.1414798538017799e+01  2.1695008336424792e+01  2.1978884642876864e+01 
 2.2266475433145452e+01  2.2557829310758606e+01  2.2852995515215095e+01  2.3152023930305994e+01 
 2.3454965092545173e+01  2.3761870199710081e+01  2.4072791119494287e+01  2.4387780398273257e+01 
 2.4706891269984816e+01  2.5030177665125837e+01  2.5357694219866463e+01  2.5689496285284015e+01 
 2.6025639936717262e+01  2.6366181983243354e+01  2.6711179977278682e+01  2.7060692224305360e+01 
 2.7414777792725012e+01  2.7773496523841459e+01  2.8136909041974043e+01  2.8505076764703283e+01 
 2.8878061913250605e+01  2.9255927522993840e+01  2.9638737454120399e+01  3.0026556402419772e+01 
 3.0419449910217260e+01  3.0817484377450807e+01  3.1220727072892743e+01  3.1629246145518398e+01 
 3.2043110636023258e+01  3.2462390488491309e+01  3.2887156562215544e+01  3.3317480643673413e+01 
 3.3753435458658878e+01  3.4195094684573306e+01  3.4642532962877063e+01  3.5095825911704125e+01 
 3.5555050138641718e+01  3.6020283253677206e+01  3.6491603882314323e+01  3.6969091678861098e+01 
 3.7452827339891620e+01  3.7942892617883935e+01  3.8439370335036422e+01  3.8942344397264954e+01 
 3.9451899808383168e+01  3.9968122684468412e+01  4.0491100268415252e+01  4.1020920944680192e+01 
 4.1557674254218547e+01  4.2101450909617149e+01  4.2652342810424997e+01  4.3210443058684518e+01 
 4.3775845974665984e+01  4.4348647112807924e+01  4.4928943277865997e+01  4.5516832541273253e+01 
 4.6112414257714462e+01  4.6715789081917215e+01  4.7327058985662923e+01  4.7946327275020181e+01 
 4.8573698607803820e+01  4.9209279011262268e+01  4.9853175899996472e+01  5.0505498094113243e+01 
 5.1166355837615804e+01  5.1835860817035801e+01  5.2514126180308232e+01  5.3201266555893845e+01 
 5.3897398072151567e+01  5.4602638376964499e+01  5.5317106657622695e+01  5.6040923660966101e+01 
 5.6774211713791018e+01  5.7517094743523693e+01  5.8269698299164283e+01  5.9032149572504935e+01 
 5.9804577419625573e+01  6.0587112382670796e+01  6.1379886711911887e+01  6.2183034388097369e+01 
 6.2996691145096065e+01  6.3820994492836618e+01  6.4656083740546492e+01  6.5502100020296240e+01 
 6.6359186310850774e+01  6.7227487461833107e+01  6.8107150218204424e+01  6.8998323245064213e+01 
 6.9901157152775113e+01  7.0815804522416343e+01  7.1742419931570325e+01  7.2681159980446651e+01 
 7.3632183318347856e+01  7.4595650670481589e+01  7.5571724865123485e+01  7.6560570861135616e+01 
 7.7562355775844836e+01  7.8577248913286070e+01  7.9605421792815122e+01  8.0647048178095915e+01 
 8.1702304106466428e+01  8.2771367918690331e+01  8.3854420289096339e+01  8.4951644256112857e+01 