  <PP_INFO>

############################################################
#    Opium Parameter File                                  #
############################################################
#-----------------------------------------------------------
#Command line   : opium Co Co.log ae ps nl tc ke rpt upf fhi 
 
#Opium version  : 3.7 
#Compile Host   : pzt.wm.edu 
#Compile OS     : Linux 2.6.9-42.ELsmp x86_64 
#Compile Date   : Mon Apr 27 12:45:31 EDT 2009 
#-----------------------------------------------------------
#Execution Host : oahu 
#Execution Date : Wed Jan 29 17:24:43 2014
 
#-----------------------------------------------------------
############################################################

[Atom]
Co
8            
100   2.00  -
200   2.00  -
210   6.00  -
300   2.00  -
310   6.00  -
320   5.00  -
400   0.00  -
410   0.00  -

[Pseudo]
5 0.80 0.80 0.80  2.0  2.0
tm

[KBdesign]
p

[Relativity]
srl

[XC]
pzlda

[Configs]
6

300  2.00 -
310  6.00 -
320  7.00 -
400  2.00 -
410  0.00 -

300  2.00 -
310  6.00 -
320  7.00 -
400  1.00 -
410  0.00 -

300  2.00 -
310  6.00 -
320  7.00 -
400  0.00 -
410  0.00 -

300  2.00 -
310  6.00 -
320  6.00 -
400  2.00 -
410  0.00 -

300  2.00 -
310  6.00 -
320  6.00 -
400  1.00 -
410  0.00 -

300  2.00 -
310  6.00 -
320  5.00 -
400  2.00 -
410  0.00 -

############################################################
  </PP_INFO>



<PP_HEADER>
   0         Version Number
   Co        Element
   NC        Norm - Conserving pseudopotential
    F      Nonlinear Core Correction
SLA  PZ   NOGX NOGC    PZ   Exchange-Correlation functional
 17          Z valence
 0          Total energy
 0.000000   0.000000     Suggested cutoff for wfc and rho
 2           Max angular momentum component
 1161           Number of points in mesh
 3  2     Number of Wavefuncitons, Number of Projectors
 Wavefunctions         nl  l   occ
                       S  0  2.000000
                       P  1  6.000000
                       D  2  5.000000
</PP_HEADER>
<PP_MESH>
  <PP_R>
 3.3333333333333328e-05  3.3769495578660291e-05  3.4211364949114719e-05  3.4659016121671904e-05 
 3.5112524750445467e-05  3.5571967479473090e-05  3.6037421955669442e-05  3.6508966841948845e-05 
 3.6986681830519407e-05  3.7470647656351216e-05  3.7960946110820712e-05  3.8457660055533662e-05 
 3.8960873436328946e-05  3.9470671297465613e-05  3.9987139795995616e-05  4.0510366216324352e-05 
 4.1040438984962252e-05  4.1577447685468820e-05  4.2121483073592574e-05  4.2672637092608989e-05 
 4.3231002888859040e-05  4.3796674827491283e-05  4.4369748508409695e-05  4.4950320782430365e-05 
 4.5538489767649325e-05  4.6134354866025043e-05  4.6738016780177337e-05  4.7349577530406497e-05 
 4.7969140471934846e-05  4.8596810312374166e-05  4.9232693129421398e-05  4.9876896388786055e-05 
 5.0529528962352303e-05  5.1190701146578313e-05  5.1860524681136918e-05  5.2539112767799682e-05 
 5.3226580089568403e-05  5.3923042830056652e-05  5.4628618693125255e-05  5.5343426922774390e-05 
 5.6067588323296164e-05  5.6801225279690939e-05  5.7544461778350330e-05  5.8297423428011642e-05 
 5.9060237480985798e-05  5.9833032854663327e-05  6.0615940153301681e-05  6.1409091690097756e-05 
 6.2212621509549046e-05  6.3026665410107551e-05  6.3851360967129880e-05  6.4686847556128061e-05 
 6.5533266376324194e-05  6.6390760474513419e-05  6.7259474769239277e-05  6.8139556075285203e-05 
 6.9031153128486586e-05  6.9934416610867493e-05  7.0849499176106319e-05  7.1776555475334646e-05 
 7.2715742183273373e-05  7.3667218024711564e-05  7.4631143801331070e-05  7.5607682418882291e-05 
 7.6596998914715969e-05  7.7599260485674453e-05  7.8614636516348774e-05  7.9643298607704870e-05 
 8.0685420606084349e-05  8.1741178632585370e-05  8.2810751112827197e-05  8.3894318807104719e-05 
 8.4992064840937201e-05  8.6104174736017174e-05  8.7230836441563788e-05  8.8372240366086844e-05 
 8.9528579409566252e-05  9.0700048996052545e-05  9.1886847106694152e-05  9.3089174313196299e-05 
 9.4307233811718633e-05  9.5541231457215467e-05  9.6791375798225941e-05  9.8057878112119137e-05 
 9.9340952440800566e-05  1.0064081562688564e-04  1.0195768735034644e-04  1.0329179016563861e-04 
 1.0464334953931322e-04  1.0601259388812126e-04  1.0739975461761664e-04  1.0880506616126418e-04 
 1.1022876602005959e-04  1.1167109480266746e-04  1.1313229626608506e-04  1.1461261735683740e-04 
 1.1611230825271226e-04  1.1763162240504027e-04  1.1917081658152936e-04  1.2073015090965880e-04 
 1.2230988892064141e-04  1.2391029759396100e-04  1.2553164740249244e-04  1.2717421235821250e-04 
 1.2883827005850788e-04  1.3052410173309073e-04  1.3223199229152644e-04  1.3396223037138432e-04 
 1.3571510838701812e-04  1.3749092257898433e-04  1.3928997306410817e-04  1.4111256388620334e-04 
 1.4295900306745692e-04  1.4482960266048509e-04  1.4672467880107154e-04  1.4864455176159415e-04 
 1.5058954600515287e-04  1.5255999024040422e-04  1.5455621747711360e-04  1.5657856508243545e-04 
 1.5862737483792835e-04  1.6070299299731749e-04  1.6280577034501174e-04  1.6493606225538772e-04 
 1.6709422875284870e-04  1.6928063457266932e-04  1.7149564922263702e-04  1.7373964704549955e-04 
 1.7601300728222995e-04  1.7831611413611905e-04  1.8064935683770672e-04  1.8301312971056292e-04 
 1.8540783223792935e-04  1.8783386913023243e-04  1.9029165039348122e-04  1.9278159139855908e-04 
 1.9530411295142213e-04  1.9785964136421664e-04  2.0044860852732688e-04  2.0307145198236536e-04 
 2.0572861499611845e-04  2.0842054663545989e-04  2.1114770184324380e-04  2.1391054151519113e-04 
 2.1670953257778235e-04  2.1954514806716882e-04  2.2241786720911735e-04  2.2532817550000031e-04 
 2.2827656478884560e-04  2.3126353336046048e-04  2.3428958601964310e-04  2.3735523417649470e-04 
 2.4046099593285052e-04  2.4360739616983946e-04  2.4679496663659027e-04  2.5002424604009883e-04 
 2.5329578013626977e-04  2.5661012182215219e-04  2.5996783122937949e-04  2.6336947581883318e-04 
 2.6681563047654499e-04  2.7030687761085443e-04  2.7384380725083661e-04  2.7742701714601894e-04 
 2.8105711286740203e-04  2.8473470790980291e-04  2.8846042379553668e-04  2.9223489017945553e-04 
 2.9605874495536213e-04  2.9993263436381483e-04  3.0385721310134347e-04  3.0783314443109575e-04 
 3.1186110029492962e-04  3.1594176142697321e-04  3.2007581746866949e-04  3.2426396708532955e-04 
 3.2850691808420648e-04  3.3280538753411801e-04  3.3716010188663176e-04  3.4157179709883809e-04 
 3.4604121875772803e-04  3.5056912220619960e-04  3.5515627267071237e-04  3.5980344539061280e-04 
 3.6451142574915135e-04  3.6928100940621382e-04  3.7411300243279054e-04  3.7900822144720385e-04 
 3.8396749375311769e-04  3.8899165747935545e-04  3.9408156172154516e-04  3.9923806668561840e-04 
 4.0446204383318634e-04  4.0975437602882073e-04  4.1511595768925930e-04  4.2054769493456336e-04 
 4.2605050574125549e-04  4.3162532009745938e-04  4.3727308016006984e-04  4.4299474041397952e-04 
 4.4879126783338940e-04  4.5466364204522981e-04  4.6061285549471939e-04  4.6663991361309070e-04 
 4.7274583498751072e-04  4.7893165153322487e-04  4.8519840866795142e-04  4.9154716548856204e-04 
 4.9797899495007008e-04  5.0449498404696314e-04  5.1109623399690665e-04  5.1778386042685407e-04 
 5.2455899356158939e-04  5.3142277841473776e-04  5.3837637498227572e-04  5.4542095843857364e-04 
 5.5255771933500233e-04  5.5978786380113930e-04  5.6711261374860818e-04  5.7453320707758339e-04 
 5.8205089788599925e-04  5.8966695668149517e-04  5.9738267059613486e-04  6.0519934360393421e-04 
 6.1311829674123527e-04  6.2114086832996658e-04  6.2926841420382076e-04  6.3750230793739571e-04 
 6.4584394107832866e-04  6.5429472338247494e-04  6.6285608305215746e-04  6.7152946697753761e-04 
 6.8031634098114201e-04  6.8921819006559078e-04  6.9823651866456678e-04  7.0737285089706749e-04 
 7.1662873082498589e-04  7.2600572271405912e-04  7.3550541129823496e-04  7.4512940204749401e-04 
 7.5487932143917939e-04  7.6475681723287405e-04  7.7476355874887598e-04  7.8490123715031844e-04 
 7.9517156572898049e-04  8.0557628019483631e-04  8.1611713896939414e-04  8.2679592348287563e-04 
 8.3761443847527994e-04  8.4857451230138984e-04  8.5967799723976862e-04  8.7092676980579729e-04 
 8.8232273106881318e-04  8.9386780697339296e-04  9.0556394866484348e-04  9.1741313281894796e-04 
 9.2941736197603084e-04  9.4157866487939090e-04  9.5389909681816375e-04  9.6638073997467168e-04 
 9.7902570377631426e-04  9.9183612525207093e-04  1.0048141693936611e-03  1.0179620295214346e-03 
 1.0312819276550446e-03  1.0447761148889791e-03  1.0584468717729978e-03  1.0722965086975523e-03 
 1.0863273662842466e-03  1.1005418157814066e-03  1.1149422594648297e-03  1.1295311310437729e-03 
 1.1443108960722563e-03  1.1592840523657461e-03  1.1744531304232941e-03  1.1898206938551952e-03 
 1.2053893398162462e-03  1.2211616994446703e-03  1.2371404383067829e-03  1.2533282568474833e-03 
 1.2697278908466332e-03  1.2863421118814117e-03  1.3031737277947170e-03  1.3202255831696987e-03 
 1.3375005598105006e-03  1.3550015772292913e-03  1.3727315931396696e-03  1.3906936039565212e-03 
 1.4088906453024273e-03  1.4273257925206855e-03  1.4460021611950537e-03  1.4649229076762879e-03 
 1.4840912296155782e-03  1.5035103665049538e-03  1.5231836002247692e-03  1.5431142555983473e-03 
 1.5633057009538820e-03  1.5837613486936969e-03  1.6044846558709461e-03  1.6254791247738672e-03 
 1.6467483035176719e-03  1.6682957866441912e-03  1.6901252157293589e-03  1.7122402799986463e-03 
 1.7346447169505513e-03  1.7573423129882430e-03  1.7803369040594740e-03  1.8036323763048656e-03 
 1.8272326667146718e-03  1.8511417637941435e-03  1.8753637082375946e-03  1.8999025936112834e-03 
 1.9247625670452439e-03  1.9499478299341566e-03  1.9754626386473922e-03  2.0013113052483522e-03 
 2.0274981982232134e-03  2.0540277432192157e-03  2.0809044237926075e-03  2.1081327821663755e-03 
 2.1357174199978872e-03  2.1636629991565936e-03  2.1919742425118840e-03  2.2206559347312700e-03 
 2.2497129230890011e-03  2.2791501182852689e-03  2.3089724952761251e-03  2.3391850941142604e-03 
 2.3697930208007902e-03  2.4008014481481702e-03  2.4322156166544260e-03  2.4640408353888057e-03 
 2.4962824828890211e-03  2.5289460080702392e-03  2.5620369311459565e-03  2.5955608445609340e-03 
 2.6295234139363270e-03  2.6639303790271991e-03  2.6987875546925356e-03  2.7341008318779903e-03 
 2.7698761786114578e-03  2.8061196410116840e-03  2.8428373443100765e-03  2.8800354938858862e-03 
 2.9177203763149249e-03  2.9558983604320178e-03  2.9945758984073504e-03  3.0337595268368923e-03 
 3.0734558678471098e-03  3.1136716302141154e-03  3.1544136104974677e-03  3.1956886941888036e-03 
 3.2375038568755060e-03  3.2798661654195919e-03  3.3227827791520326e-03  3.3662609510826981e-03 
 3.4103080291261194e-03  3.4549314573433269e-03  3.5001387771998963e-03  3.5459376288404809e-03 
 3.5923357523800136e-03  3.6393409892118067e-03  3.6869612833327599e-03  3.7352046826859197e-03 
 3.7840793405206070e-03  3.8335935167703120e-03  3.8837555794486753e-03  3.9345740060636797e-03 
 3.9860573850503756e-03  4.0382144172223461e-03  4.0910539172421701e-03  4.1445848151111112e-03 
 4.1988161576783194e-03  4.2537571101697669e-03  4.3094169577371820e-03  4.3658051070272859e-03 
 4.4229310877715146e-03  4.4808045543965813e-03  4.5394352876560878e-03  4.5988331962835043e-03 
 4.6590083186667615e-03  4.7199708245447627e-03  4.7817310167261040e-03  4.8442993328302493e-03 
 4.9076863470515451e-03  4.9719027719462615e-03  5.0369594602430448e-03  5.1028674066770597e-03 
 5.1696377498481223e-03  5.2372817741031469e-03  5.3058109114432319e-03  5.3752367434556992e-03 
 5.4455710032713890e-03  5.5168255775476177e-03  5.5890125084770296e-03  5.6621439958227660e-03 
 5.7362323989802455e-03  5.8112902390659417e-03  5.8873302010334734e-03  5.9643651358173922e-03 
 6.0424080625050393e-03  6.1214721705367577e-03  6.2015708219349940e-03  6.2827175535624747e-03 
 6.3649260794099846e-03  6.4482102929140543e-03  6.5325842693049899e-03  6.6180622679856208e-03 
 6.7046587349411709e-03  6.7923883051806671e-03  6.8812658052102736e-03  6.9713062555390396e-03 
 7.0625248732173749e-03  7.1549370744087753e-03  7.2485584769951938e-03  7.3434049032164985e-03 
 7.4394923823444571e-03  7.5368371533917440e-03  7.6354556678563624e-03  7.7353645925019639e-03 
 7.8365808121746167e-03  7.9391214326563469e-03  8.0430037835560724e-03  8.1482454212383447e-03 
 8.2548641317904212e-03  8.3628779340281442e-03  8.4723050825411764e-03  8.5831640707780699e-03 
 8.6954736341716809e-03  8.8092527533055326e-03  8.9245206571215690e-03  9.0412968261698798e-03 
 9.1596009959009766e-03  9.2794531600011165e-03  9.4008735737712915e-03  9.5238827575504243e-03 
 9.6485015001833499e-03  9.7747508625341695e-03  9.9026521810456087e-03  1.0032227071344916e-02 
 1.0163497431896948e-02  1.0296485447705077e-02  1.0431213594060504e-02  1.0567704640340623e-02 
 1.0705981653857118e-02  1.0846068003754396e-02  1.0987987364958993e-02  1.1131763722180740e-02 
 1.1277421373966210e-02  1.1424984936805235e-02  1.1574479349291145e-02  1.1725929876335471e-02 
 1.1879362113437741e-02  1.2034801991011214e-02  1.2192275778765175e-02  1.2351810090144525e-02 
 1.2513431886827620e-02  1.2677168483282764e-02  1.2843047551384471e-02  1.3011097125090061e-02 
 1.3181345605177454e-02  1.3353821764045004e-02  1.3528554750574065e-02  1.3705574095055253e-02 
 1.3884909714179085e-02  1.4066591916092044e-02  1.4250651405518670e-02  1.4437119288950757e-02 
 1.4626027079904421e-02  1.4817406704245948e-02  1.5011290505587348e-02  1.5207711250752520e-02 
 1.5406702135314905e-02  1.5608296789207589e-02  1.5812529282406902e-02  1.6019434130690294e-02 
 1.6229046301469572e-02  1.6441401219700502e-02  1.6656534773869691e-02  1.6874483322059822e-02 
 1.7095283698094283e-02  1.7318973217762167e-02  1.7545589685124676e-02  1.7775171398904163e-02 
 1.8007757158956694e-02  1.8243386272829294e-02  1.8482098562403029e-02  1.8723934370622992e-02 
 1.8968934568316363e-02  1.9217140561099674e-02  1.9468594296376488e-02  1.9723338270426514e-02 
 1.9981415535587691e-02  2.0242869707532082e-02  2.0507744972637031e-02  2.0776086095452780e-02 
 2.1047938426267752e-02  2.1323347908772897e-02  2.1602361087826254e-02  2.1885025117319174e-02 
 2.2171387768145385e-02  2.2461497436274461e-02  2.2755403150930806e-02  2.3053154582879713e-02 
 2.3354802052821876e-02  2.3660396539897644e-02  2.3969989690302687e-02  2.4283633826016296e-02 
 2.4601381953643905e-02  2.4923287773375338e-02  2.5249405688060306e-02  2.5579790812402584e-02 
 2.5914498982274534e-02  2.6253586764153507e-02  2.6597111464681692e-02  2.6945131140351106e-02 
 2.7297704607315263e-02  2.7654891451329260e-02  2.8016752037819819e-02  2.8383347522087349e-02 
 2.8754739859641224e-02  2.9130991816670445e-02  2.9512166980651268e-02  2.9898329771093617e-02 
 3.0289545450428210e-02  3.0685880135035971e-02  3.1087400806421941e-02  3.1494175322535199e-02 
 3.1906272429237145e-02  3.2323761771919639e-02  3.2746713907275272e-02  3.3175200315221594e-02 
 3.3609293410981365e-02  3.4049066557320956e-02  3.4494594076948805e-02  3.4945951265076172e-02 
 3.5403214402142051e-02  3.5866460766704952e-02  3.6335768648503082e-02  3.6811217361685453e-02 
 3.7292887258216209e-02  3.7780859741454273e-02  3.8275217279910755e-02  3.8776043421186263e-02 
 3.9283422806090720e-02  3.9797441182947715e-02  4.0318185422086386e-02  4.0845743530522567e-02 
 4.1380204666832246e-02  4.1921659156219489e-02  4.2470198505781757e-02  4.3025915419974664e-02 
 4.3588903816279390e-02  4.4159258841074918e-02  4.4737076885717868e-02  4.5322455602833066e-02 
 4.5915493922816970e-02  4.6516292070557158e-02  4.7124951582370532e-02  4.7741575323163268e-02 
 4.8366267503815195e-02  4.8999133698791664e-02  4.9640280863985940e-02  5.0289817354794868e-02 
 5.0947852944431382e-02  5.1614498842476327e-02  5.2289867713673152e-02  5.2974073696968521e-02 
 5.3667232424802105e-02  5.4369461042648691e-02  5.5080878228816049e-02  5.5801604214501949e-02 
 5.6531760804113276e-02  5.7271471395851536e-02  5.8020861002567363e-02  5.8780056272887869e-02 
 5.9549185512620721e-02  6.0328378706438028e-02  6.1117767539844110e-02  6.1917485421430600e-02 
 6.2727667505422982e-02  6.3548450714521657e-02  6.4379973763042539e-02  6.5222377180359919e-02 
 6.6075803334656374e-02  6.6940396456983187e-02  6.7816302665635833e-02  6.8703669990848329e-02 
 6.9602648399810702e-02  7.0513389822013703e-02  7.1436048174925271e-02  7.2370779390003082e-02 
 7.3317741439047276e-02  7.4277094360898008e-02  7.5249000288482373e-02  7.6233623476215401e-02 
 7.7231130327759287e-02  7.8241689424146152e-02  7.9265471552268554e-02  8.0302649733742709e-02 
 8.1353399254149930e-02  8.2417897692660072e-02  8.3496324952042844e-02  8.4588863289071822e-02 
 8.5695697345326380e-02  8.6817014178396282e-02  8.7953003293495272e-02  8.9103856675487592e-02 
 9.0269768821333779e-02  9.1450936772961552e-02  9.2647560150566063e-02  9.3859841186346132e-02 
 9.5087984758682229e-02  9.6332198426761120e-02  9.7592692465654107e-02  9.8869679901853816e-02 
 1.0016337654927635e-01  1.0147400104573426e-01  1.0280177488988682e-01  1.0414692247867395e-01 
 1.0550967114523989e-01  1.0689025119735243e-01  1.0828889595632647e-01  1.0970584179645514e-01 
 1.1114132818495794e-01  1.1259559772245113e-01  1.1406889618394782e-01  1.1556147256039459e-01 
 1.1707357910075158e-01  1.1860547135462304e-01  1.2015740821544592e-01  1.2172965196424344e-01 
 1.2332246831395130e-01  1.2493612645432357e-01  1.2657089909742675e-01  1.2822706252372837e-01 
 1.2990489662878929e-01  1.3160468497056674e-01  1.3332671481733629e-01  1.3507127719624021e-01 
 1.3683866694247301e-01  1.3862918274910838e-01  1.4044312721757915e-01  1.4228080690881800e-01 
 1.4414253239506644e-01  1.4602861831236288e-01  1.4793938341371635e-01  1.4987515062297679e-01 
 1.5183624708940979e-01  1.5382300424298595e-01  1.5583575785039278e-01  1.5787484807178048e-01 
 1.5994061951824975e-01  1.6203342131009169e-01  1.6415360713579030e-01  1.6630153531179631e-01 
 1.6847756884308410e-01  1.7068207548449893e-01  1.7291542780291053e-01  1.7517800324017627e-01 
 1.7747018417693017e-01  1.7979235799720619e-01  1.8214491715390693e-01  1.8452825923512922e-01 
 1.8694278703135733e-01  1.8938890860353566e-01  1.9186703735203195e-01  1.9437759208650279e-01 
 1.9692099709667379e-01  1.9949768222404507e-01  2.0210808293453605e-01  2.0475264039207974e-01 
 2.0743180153318086e-01  2.1014601914244876e-01  2.1289575192911997e-01  2.1568146460457929e-01 
 2.1850362796089956e-01  2.2136271895040499e-01  2.2425922076627772e-01  2.2719362292421860e-01 
 2.3016642134517643e-01  2.3317811843916003e-01  2.3622922319014630e-01  2.3932025124210002e-01 
 2.4245172498611917e-01  2.4562417364871938e-01  2.4883813338127558e-01  2.5209414735063213e-01 
 2.5539276583089932e-01  2.5873454629645132e-01  2.6212005351614076e-01  2.6554985964874556e-01 
 2.6902454433966577e-01  2.7254469481888338e-01  2.7611090600020816e-01  2.7972378058181752e-01 
 2.8338392914811500e-01  2.8709197027291955e-01  2.9084853062400695e-01  2.9465424506901744e-01 
 2.9850975678275021e-01  3.0241571735586131e-01  3.0637278690498432e-01  3.1038163418429104e-01 
 3.1444293669851331e-01  3.1855738081744223e-01  3.2272566189192664e-01  3.2694848437138907e-01 
 3.3122656192287925e-01  3.3556061755168576e-01  3.3995138372352574e-01  3.4439960248833162e-01 
 3.4890602560566242e-01  3.5347141467175064e-01  3.5809654124821449e-01  3.6278218699245385e-01 
 3.6752914378975160e-01  3.7233821388710475e-01  3.7721021002880561e-01  3.8214595559379833e-01 
 3.8714628473483059e-01  3.9221204251942876e-01  3.9734408507271518e-01  4.0254327972209641e-01 
 4.0781050514384254e-01  4.1314665151158647e-01  4.1855262064676485e-01  4.2402932617102823e-01 
 4.2957769366064608e-01  4.3519866080292835e-01  4.4089317755470114e-01  4.4666220630284925e-01 
 4.5250672202696168e-01  4.5842771246410646e-01  4.6442617827575994e-01  4.7050313321692128e-01 
 4.7665960430743931e-01  4.8289663200558131e-01  4.8921527038387280e-01  4.9561658730723890e-01 
 5.0210166461347527e-01  5.0867159829608199e-01  5.1532749868948835e-01  5.2207049065670230e-01 
 5.2890171377941575e-01  5.3582232255059514e-01  5.4283348656959540e-01  5.4993639073982126e-01 
 5.5713223546898416e-01  5.6442223687196968e-01  5.7180762697636600e-01  5.7928965393067888e-01 
 5.8686958221527152e-01  5.9454869285606493e-01  6.0232828364103441e-01  6.1020966933953891e-01 
 6.1819418192451958e-01  6.2628317079760765e-01  6.3447800301717494e-01  6.4278006352937123e-01 
 6.5119075540218263e-01  6.5971150006255408e-01  6.6834373753661325e-01  6.7708892669303877e-01 
 6.8594854548961393e-01  6.9492409122299958e-01  7.0401708078178826e-01  7.1322905090285804e-01 
 7.2256155843108438e-01  7.3201618058245199e-01  7.4159451521060760e-01  7.5129818107690027e-01 
 7.6112881812395727e-01  7.7108808775283744e-01  7.8117767310381225e-01  7.9139927934081977e-01 
 8.0175463393964297e-01  8.1224548697985544e-01  8.2287361144059035e-01  8.3364080350017755e-01 
 8.4454888283970198e-01  8.5559969295053451e-01  8.6679510144588712e-01  8.7813700037643871e-01 
 8.8962730655010513e-01  9.0126796185597735e-01  9.1306093359250817e-01  9.2500821479998974e-01 
 9.3711182459738118e-01  9.4937380852354658e-01  9.6179623888295407e-01  9.7438121509590081e-01 
 9.8713086405331996e-01  1.0000473404762316e+00  1.0131328272798930e+00  1.0263895359427186e+00 
 1.0398197068800250e+00  1.0534256098226660e+00  1.0672095442006213e+00  1.0811738395316086e+00 
 1.0953208558147771e+00  1.1096529839295461e+00  1.1241726460396806e+00  1.1388822960026355e+00 
 1.1537844197842644e+00  1.1688815358789559e+00  1.1841761957352619e+00  1.1996709841871012e+00 
 1.2153685198906008e+00  1.2312714557666569e+00  1.2473824794492827e+00  1.2637043137398265e+00 
 1.2802397170671309e+00  1.2969914839537136e+00  1.3139624454880494e+00  1.3311554698030310e+00 
 1.3485734625606880e+00  1.3662193674432530e+00  1.3840961666506526e+00  1.4022068814044968e+00 
 1.4205545724586859e+00  1.4391423406166783e+00  1.4579733272555329e+00  1.4770507148568104e+00 
 1.4963777275444232e+00  1.5159576316295145e+00  1.5357937361624767e+00  1.5558893934921887e+00 
 1.5762479998325676e+00  1.5968729958365411e+00  1.6177678671775231e+00  1.6389361451385023e+00 
 1.6603814072088365e+00  1.6821072776888573e+00  1.7041174283023852e+00  1.7264155788172610e+00 
 1.7490054976739959e+00  1.7718910026226369e+00  1.7950759613679932e+00  1.8185642922232750e+00 
 1.8423599647723015e+00  1.8664670005403696e+00  1.8908894736739010e+00  1.9156315116289833e+00 
 1.9406972958689193e+00  1.9660910625709040e+00  1.9918171033419503e+00  2.0178797659441789e+00 
 2.0442834550296007e+00  2.0710326328845152e+00  2.0981318201836454e+00  2.1255855967541430e+00 
 2.1533986023495921e+00  2.1815755374341341e+00  2.2101211639768681e+00  2.2390403062566122e+00 
 2.2683378516772468e+00  2.2980187515936770e+00  2.3280880221486342e+00  2.3585507451204095e+00 
 2.3894120687816889e+00  2.4206772087696242e+00  2.4523514489672880e+00  2.4844401423966604e+00 
 2.5169487121233058e+00  2.5498826521728812e+00  2.5832475284596419e+00  2.6170489797270902e+00 
 2.6512927185009429e+00  2.6859845320545555e+00  2.7211302833869886e+00  2.7567359122138666e+00 
 2.7928074359712123e+00  2.8293509508323842e+00  2.8663726327383756e+00  2.9038787384415436e+00 
 2.9418756065630212e+00  2.9803696586639554e+00  3.0193674003307729e+00  3.0588754222746330e+00 
 3.0989004014452766e+00  3.1394491021594466e+00  3.1805283772440753e+00  3.2221451691944227e+00 
 3.2643065113473813e+00  3.3070195290701219e+00  3.3502914409643032e+00  3.3941295600860251e+00 
 3.4385412951817567e+00  3.4835341519404364e+00  3.5291157342619490e+00  3.5752937455421812e+00 
 3.6220759899749559e+00  3.6694703738709271e+00  3.7174849069937772e+00  3.7661277039138827e+00 
 3.8154069853796981e+00  3.8653310797070808e+00  3.9159084241867954e+00  3.9671475665104374e+00 
 4.0190571662150161e+00  4.0716459961464304e+00  4.1249229439421038e+00  4.1788970135330192e+00 
 4.2335773266654009e+00  4.2889731244423128e+00  4.3450937688854259e+00  4.4019487445172238e+00 
 4.4595476599639188e+00  4.5179002495792941e+00  4.5770163750898867e+00  4.6369060272616114e+00 
 4.6975793275882287e+00  4.7590465300019025e+00  4.8213180226061363e+00  4.8844043294313950e+00 
 4.9483161122136812e+00  5.0130641721964038e+00  5.0786594519558044e+00  5.1451130372502867e+00 
 5.2124361588939303e+00  5.2806401946545307e+00  5.3497366711764620e+00  5.4197372659287106e+00 
 5.4906538091784043e+00  5.5624982859901326e+00  5.6352828382514888e+00  5.7090197667250191e+00 
 5.7837215331271450e+00  5.8594007622341842e+00  5.9360702440159816e+00  6.0137429357974401e+00 
 6.0924319644483385e+00  6.1721506286018064e+00  6.2529124009018231e+00  6.3347309302801289e+00 
 6.4176200442629234e+00  6.5015937513077553e+00  6.5866662431709813e+00  6.6728518973062068e+00 
 6.7601652792941076e+00  6.8486211453040582e+00  6.9382344445879447e+00  7.0290203220066365e+00 
 7.1209941205895078e+00  7.2141713841274031e+00  7.3085678597996386e+00  7.4041995008352801e+00 
 7.5010824692092744e+00  7.5992331383738678e+00  7.6986680960257559e+00  7.7994041469094455e+00 
 7.9014583156573002e+00  8.0048478496667368e+00  8.1095902220150791e+00  8.2157031344125500e+00 
 8.3232045201939062e+00  8.4321125473492060e+00  8.5424456215942541e+00  8.6542223894811947e+00 
 8.7674617415498464e+00  8.8821828155202276e+00  8.9984049995268993e+00  9.1161479353955528e+00 
 9.2354315219625995e+00  9.3562759184380795e+00  9.4787015478126193e+00  9.6027291003089648e+00 
 9.7283795368786841e+00  9.8556740927446214e+00  9.9846342809896917e+00  1.0115281896192645e+01 
 1.0247639018111405e+01  1.0381728015414595e+01  1.0517571549461909e+01  1.0655192578133919e+01 
 1.0794614359712023e+01  1.0935860456809145e+01  1.1078954740351875e+01  1.1223921393614706e+01 
 1.1370784916307100e+01  1.1519570128713895e+01  1.1670302175890136e+01  1.1823006531910547e+01 
 1.1977709004174754e+01  1.2134435737768770e+01  1.2293213219883601e+01  1.2454068284291633e+01 
 1.2617028115881592e+01  1.2782120255252883e+01  1.2949372603369996e+01  1.3118813426277839e+01 
 1.3290471359878767e+01  1.3464375414772121e+01  1.3640554981157086e+01  1.3819039833799710e+01 
 1.3999860137064898e+01  1.4183046450014267e+01  1.4368629731570740e+01  1.4556641345750554e+01 
 1.4747113066964014e+01  1.4940077085385346e+01  1.5135566012392937e+01  1.5333612886080729e+01 
 1.5534251176841757e+01  1.5737514793024685e+01  1.5943438086664447e+01  1.6152055859287778e+01 
 1.6363403367794792e+01  1.6577516330417435e+01  1.6794430932756015e+01  1.7014183833894602e+01 
 1.7236812172596522e+01  1.7462353573580888e+01  1.7690846153881282e+01  1.7922328529287608e+01 
 1.8156839820872293e+01  1.8394419661601699e+01  1.8635108203034420e+01  1.8878946122106822e+01 
 1.9125974628007569e+01  1.9376235469142124e+01  1.9629770940188273e+01  1.9886623889244074e+01 
 2.0146837725069240e+01  2.0410456424421369e+01  2.0677524539488086e+01  2.0948087205416485e+01 
 2.1222190147941067e+01  2.1499879691111527e+01  2.1781202765121570e+01  2.2066206914240293e+01 
 2.2354940304847233e+01  2.2647451733572648e+01  2.2943790635544126e+01  2.3244007092741445e+01 
 2.3548151842460427e+01  2.3856276285887670e+01  2.4168432496787464e+01  2.4484673230302427e+01 
 2.4805051931869205e+01  2.5129622746250888e+01  2.5458440526687614e+01  2.5791560844166913e+01 
 2.6129039996815290e+01  2.6470935019412764e+01  2.6817303693031903e+01  2.7168204554802941e+01 
 2.7523696907806695e+01  2.7883840831096933e+01  2.8248697189853868e+01  2.8618327645670565e+01 
 2.8992794666973722e+01  2.9372161539581253e+01  2.9756492377397560e+01  3.0145852133248972e+01 
 3.0540306609860956e+01  3.0939922470978885e+01  3.1344767252634416e+01  3.1754909374559226e+01 
 3.2170418151748088e+01  3.2591363806173305e+01  3.3017817478652368e+01  3.3449851240870913e+01 
 3.3887538107563053e+01  3.4330952048850996e+01  3.4780168002746173e+01  3.5235261887813984e+01 
 3.5696310616004176e+01  3.6163392105649187e+01  3.6636585294632368e+01  3.7115970153728966e+01 
 3.7601627700121149e+01  3.8093640011090152e+01  3.8592090237887582e+01  3.9097062619788126e+01 
 3.9608642498326198e+01  4.0126916331718888e+01  4.0651971709477586e+01  4.1183897367210818e+01 
 4.1722783201620757e+01  4.2268720285696041e+01  4.2821800884103233e+01  4.3382118468779886e+01 
 4.3949767734731395e+01  4.4524844616034770e+01  4.5107446302051692e+01  4.5697671253853827e+01 
 4.6295619220862669e+01  4.6901391257707878e+01  4.7515089741305502e+01  4.8136818388159909e+01 
 4.8766682271892186e+01  4.9404787840997855e+01  5.0051242936836815e+01  5.0706156811858911e+01 
 5.1369640148067766e+01  5.2041805075726352e+01  5.2722765192307271e+01  5.3412635581690971e+01 
 5.4111532833615215e+01  5.4819575063379006e+01  5.5536881931804423e+01  5.6263574665459466e+01 
 5.6999776077145718e+01  5.7745610586654088e+01  5.8501204241791633e+01  5.9266684739684585e+01 
 6.0042181448358967e+01  6.0827825428604335e+01  6.1623749456123250e+01  6.2430088043970741e+01 
 6.3246977465287280e+01  6.4074555776329390e+01  6.4912962839801352e+01  6.5762340348492373e+01 
 6.6622831849223019e+01  6.7494582767104959e+01  6.8377740430118166e+01  6.9272454094009731e+01 
 7.0178874967518311e+01  7.1097156237928914e+01  7.2027453096961821e+01  7.2969922767000583e+01 
 7.3924724527662292e+01  7.4892019742717167e+01  7.5871971887358825e+01  7.6864746575832086e+01 
 7.7870511589422165e+01  7.8889436904810253e+01  7.9921694722799714e+01  8.0967459497418702e+01 
 8.2026907965403154e+01  8.3100219176065707e+01  8.4187574521555575e+01  8.5289157767514169e+01 
 8.6405155084131920e+01  8.7535755077611512e+01  8.8681148822042800e+01  8.9841529891694719e+01 
 9.1017094393729863e+01  9.2208041001347226e+01  9.3414570987357692e+01  9.4636888258200713e+01 
 9.5875199388404340e+01  9.7129713655496857e+01  9.8400643075375285e+01  9.9688202438136500e+01 
 1.0099260934437729e+02  1.0231408424196945e+02  1.0365285046331597e+02  1.0500913426309459e+02 