  <PP_INFO>

############################################################
#    Opium Parameter File                                  #
############################################################
#-----------------------------------------------------------
#Command line   : opium Rh Rh.log ae ps nl tc2 ke upf qmcpack rpt 
 
#Opium version  : 4.1 
#Compile Host   : py-garuda.cos.ncsu.edu 
#Compile OS     : Linux 5.15.0-113-generic x86_64 
#Compile Date   : Sat Jul 13 02:11:52 EDT 2024 
#-----------------------------------------------------------
#Execution Host : py-garuda.cos.ncsu.edu 
#Execution Date : Mon Jan 20 22:27:56 2025
 
#-----------------------------------------------------------
############################################################
[Atom]
Rh
11            
100   2.00 -
200   2.00 -
210   6.00 -
300   2.00 -
310   6.00 -
320  10.00 -
400   2.00 -
410   6.00 -
420   8.00 -
500   0.00 -
510   0.00 -

[Pseudo]
5 1.176092 1.288137 1.877981 3.242022 3.2
g

[Gaussinfo]
17 4 2
2 2 2 4  4 4
2  11.96851556026113   245.38791874527365
2  5.12576018874406   27.28583987118665
2  9.73960036628028   180.58942316852949
2  6.56477618290695   28.41162810130719
2  11.42592077796438   83.48704442041299
2  4.50252107517308   21.38037165422960
1  22.80620553159304   17.0
3  32.71000635592747   387.705494037081680
2  14.04858672478363   -10.57196656168149
2  11.83833524886781   -14.59446052899020
2  12.58383519  -105.69101129
2  9.85097323  105.80783124
4  4.16540411  -17.20901136
4  6.17969224  17.03566442
2  12.42831804  -24.30130578
2  14.00609705  24.82109885
2  4.78289419  -2.72493358
2  5.95259534  6.11121245


[KBdesign]
s

[Relativity]
frl

[XC]
pbe

[Configs]
6
400   2.00 -
410   6.00 -
420   8.00 -
500   0.00 -
510   1.00 -

400   2.00 -
410   6.00 -
420   8.00 -
500   1.00 -
510   0.00 -

400   2.00 -
410   6.00 -
420   7.00 -
500   1.00 -
510   0.00 -

400   2.00 -
410   6.00 -
420   6.00 -
500   0.00 -
510   0.00 -

400   2.00 -
410   6.00 -
420   5.00 -
500   0.00 -
510   0.00 -

400   2.00 -
410   6.00 -
420   4.00 -
500   0.00 -
510   0.00 -
############################################################
############################################################
  </PP_INFO>



<PP_HEADER>
   0         Version Number
   Rh        Element
   NC        Norm - Conserving pseudopotential
    F      Nonlinear Core Correction
SLA  PW   PBE  PBE     PBE  Exchange-Correlation functional
 17          Z valence
 0          Total energy
 0.000000   0.000000     Suggested cutoff for wfc and rho
 2           Max angular momentum component
 1174           Number of points in mesh
 5  4     Number of Wavefuncitons, Number of Projectors
 Wavefunctions         nl  l   occ
                      4S  0  2.000000
                      4P  1  2.000000
                      4P  1  4.000000
                      4D  2  3.200000
                      4D  2  4.800000
</PP_HEADER>
<PP_MESH>
  <PP_R>
 2.8114422176724981e-05  2.8482295661805100e-05  2.8854982722642684e-05  2.9232546344238050e-05 
 2.9615050335741872e-05  3.0002559341239153e-05  3.0395138850674064e-05  3.0792855210918114e-05 
 3.1195775636982785e-05  3.1603968223379065e-05  3.2017501955625599e-05  3.2436446721907390e-05 
 3.2860873324887065e-05  3.3290853493670698e-05  3.3726459895930239e-05  3.4167766150184412e-05 
 3.4614846838240547e-05  3.5067777517799034e-05  3.5526634735222727e-05  3.5991496038473502e-05 
 3.6462439990218017e-05  3.6939546181105016e-05  3.7422895243216319e-05  3.7912568863693868e-05 
 3.8408649798544930e-05  3.8911221886628246e-05  3.9420370063822873e-05  3.9936180377382584e-05 
 4.0458740000478047e-05  4.0988137246929304e-05  4.1524461586131016e-05  4.2067803658173032e-05 
 4.2618255289158754e-05  4.3175909506723880e-05  4.3740860555758473e-05  4.4313203914334481e-05 
 4.4893036309841722e-05  4.5480455735335088e-05  4.6075561466095617e-05  4.6678454076408211e-05 
 4.7289235456558948e-05  4.7908008830054847e-05  4.8534878771068676e-05  4.9169951222112521e-05 
 4.9813333511942143e-05  5.0465134373695831e-05  5.1125463963270583e-05  5.1794433877938683e-05 
 5.2472157175207909e-05  5.3158748391928604e-05  5.3854323563650458e-05  5.4559000244233057e-05 
 5.5272897525712641e-05  5.5996136058428911e-05  5.6728838071415274e-05  5.7471127393055827e-05 
 5.8223129472012648e-05  5.8984971398426923e-05  5.9756781925397472e-05  6.0538691490740389e-05 
 6.1330832239033125e-05  6.2133338043947580e-05  6.2946344530874807e-05  6.3769989099846154e-05 
 6.4604410948754105e-05  6.5449751096877148e-05  6.6306152408712304e-05  6.7173759618119642e-05 
 6.8052719352782438e-05  6.8943180158987901e-05  6.9845292526731685e-05  7.0759208915151025e-05 
 7.1685083778290798e-05  7.2623073591206533e-05  7.3573336876409128e-05  7.4536034230655493e-05 
 7.5511328352089797e-05  7.6499384067739879e-05  7.7500368361373414e-05  7.8514450401718337e-05 
 7.9541801571053120e-05  8.0582595494170612e-05  8.1637008067720975e-05  8.2705217489938767e-05 
 8.3787404290758778e-05  8.4883751362326124e-05  8.5994443989905188e-05  8.7119669883193625e-05 
 8.8259619208045552e-05  8.9414484618610088e-05  9.0584461289890290e-05  9.1769746950728248e-05 
 9.2970541917221776e-05  9.4187049126578210e-05  9.5419474171411299e-05  9.6668025334486940e-05 
 9.7932913623923447e-05  9.9214352808852109e-05  1.0051255945554526e-04  1.0182775296401598e-04 
 1.0316015560509754e-04  1.0450999255800749e-04  1.0587749194840365e-04  1.0726288488693786e-04 
 1.0866640550831392e-04  1.1008829101085743e-04  1.1152878169660256e-04  1.1298812101190370e-04 
 1.1446655558857851e-04  1.1596433528558928e-04  1.1748171323126964e-04  1.1901894586610392e-04 
 1.2057629298606619e-04  1.2215401778652634e-04  1.2375238690673091e-04  1.2537167047486526e-04 
 1.2701214215370655e-04  1.2867407918687300e-04  1.3035776244567883e-04  1.3206347647660202e-04 
 1.3379150954937364e-04  1.3554215370569593e-04  1.3731570480859779e-04  1.3911246259243700e-04 
 1.4093273071355544e-04  1.4277681680159799e-04  1.4464503251150268e-04  1.4653769357617097e-04 
 1.4845511985982749e-04  1.5039763541207788e-04  1.5236556852267385e-04  1.5435925177699494e-04 
 1.5637902211225642e-04  1.5842522087445194e-04  1.6049819387604260e-04  1.6259829145439953e-04 
 1.6472586853101193e-04  1.6688128467146957e-04  1.6906490414623029e-04  1.7127709599218269e-04 
 1.7351823407501369e-04  1.7578869715239350e-04  1.7808886893798623e-04  1.8041913816629822e-04 
 1.8277989865837530e-04  1.8517154938835949e-04  1.8759449455091649e-04  1.9004914362954564e-04 
 1.9253591146578357e-04  1.9505521832931326e-04  1.9760748998899112e-04  2.0019315778480187e-04 
 2.0281265870075729e-04  2.0546643543874695e-04  2.0815493649335571e-04  2.1087861622766095e-04 
 2.1363793495001997e-04  2.1643335899186451e-04  2.1926536078651097e-04  2.2213441894900317e-04 
 2.2504101835699912e-04  2.2798565023271681e-04  2.3096881222595171e-04  2.3399100849818096e-04 
 2.3705274980776760e-04  2.4015455359628027e-04  2.4329694407594171e-04  2.4648045231822230e-04 
 2.4970561634359196e-04  2.5297298121244746e-04  2.5628309911722782e-04  2.5963652947573755e-04 
 2.6303383902568874e-04  2.6647560192048146e-04  2.6996239982623625e-04  2.7349482202009831e-04 
 2.7707346548982585e-04  2.8069893503468289e-04  2.8437184336765133e-04  2.8809281121898147e-04 
 2.9186246744109635e-04  2.9568144911486965e-04  2.9955040165729389e-04  3.0346997893055712e-04 
 3.0744084335254749e-04  3.1146366600880339e-04  3.1553912676592847e-04  3.1966791438649088e-04 
 3.2385072664542497e-04  3.2808827044795812e-04  3.3238126194907878e-04  3.3673042667456871e-04 
 3.4113649964361741e-04  3.4560022549304367e-04  3.5012235860314026e-04  3.5470366322516581e-04 
 3.5934491361050549e-04  3.6404689414152105e-04  3.6881039946411328e-04  3.7363623462201935e-04 
 3.7852521519286700e-04  3.8347816742600885e-04  3.8849592838216085e-04  3.9357934607486730e-04 
 3.9872927961381735e-04  4.0394659935003664e-04  4.0923218702297788e-04  4.1458693590953812e-04 
 4.2001175097502406e-04  4.2550754902609362e-04  4.3107525886569743e-04  4.3671582145005046e-04 
 4.4243019004765443e-04  4.4821933040040314e-04  4.5408422088679502e-04  4.6002585268728100e-04 
 4.6604522995177713e-04  4.7214336996936781e-04  4.7832130334023046e-04  4.8458007414980839e-04 
 4.9092074014526511e-04  4.9734437291424510e-04  5.0385205806597537e-04  5.1044489541473572e-04 
 5.1712399916572919e-04  5.2389049810338682e-04  5.3074553578213383e-04  5.3769027071965412e-04 
 5.4472587659268063e-04  5.5185354243535156e-04  5.5907447284015896e-04  5.6638988816152755e-04 
 5.7380102472205847e-04  5.8130913502146917e-04  5.8891548794827041e-04  5.9662136899421071e-04 
 6.0442808047152794e-04  6.1233694173304192e-04  6.2034928939512990e-04  6.2846647756361696e-04 
 6.3668987806262333e-04  6.4502088066640596e-04  6.5346089333423311e-04  6.6201134244833401e-04 
 6.7067367305495952e-04  6.7944934910859993e-04  6.8833985371939460e-04  6.9734668940378325e-04 
 7.0647137833843357e-04  7.1571546261749348e-04  7.2508050451320803e-04  7.3456808673994694e-04 
 7.4417981272168789e-04  7.5391730686299866e-04  7.6378221482356580e-04  7.7377620379631337e-04 
 7.8390096278916461e-04  7.9415820291048756e-04  8.0454965765827560e-04  8.1507708321311423e-04 
 8.2574225873497786e-04  8.3654698666391417e-04  8.4749309302465953e-04  8.5858242773524185e-04 
 8.6981686491962034e-04  8.8119830322441858e-04  8.9272866613979889e-04  9.0440990232453736e-04 
 9.1624398593535231e-04  9.2823291696053916e-04  9.4037872155797641e-04  9.5268345239754939e-04 
 9.6514918900805660e-04  9.7777803812865442e-04  9.9057213406490209e-04  1.0035336390494644e-03 
 1.0166647436075332e-03  1.0299676669270324e-03  1.0434446572336646e-03  1.0570979921708686e-03 
 1.0709299791847448e-03  1.0849429559140209e-03  1.0991392905851148e-03  1.1135213824123758e-03 
 1.1280916620035530e-03  1.1428525917705759e-03  1.1578066663457086e-03  1.1729564130031449e-03 
 1.1883043920861284e-03  1.2038531974396538e-03  1.2196054568488343e-03  1.2355638324830006e-03 
 1.2517310213456178e-03  1.2681097557300837e-03  1.2847028036814918e-03  1.3015129694644394e-03 
 1.3185430940369528e-03  1.3357960555306185e-03  1.3532747697369929e-03  1.3709821906003781e-03 
 1.3889213107170448e-03  1.4070951618409893e-03  1.4255068153963078e-03  1.4441593829962720e-03 
 1.4630560169692029e-03  1.4821999108912153e-03  1.5015943001259477e-03  1.5212424623713410e-03 
 1.5411477182135794e-03  1.5613134316882764e-03  1.5817430108490071e-03  1.6024399083432715e-03 
 1.6234076219960075e-03  1.6446496954007285e-03  1.6661697185183972e-03  1.6879713282841411e-03 
 1.7100582092218998e-03  1.7324340940671210e-03  1.7551027643976003e-03  1.7780680512725787e-03 
 1.8013338358801945e-03  1.8249040501934230e-03  1.8487826776345821e-03  1.8729737537485432e-03 
 1.8974813668847467e-03  1.9223096588881427e-03  1.9474628257991739e-03  1.9729451185629149e-03 
 1.9987608437474955e-03  2.0249143642719113e-03  2.0514101001433815e-03  2.0782525292043297e-03 
 2.1054461878891565e-03  2.1329956719909017e-03  2.1609056374379495e-03  2.1891808010808885e-03 
 2.2178259414896723e-03  2.2468458997612108e-03  2.2762455803375168e-03  2.3060299518345849e-03 
 2.3362040478820873e-03  2.3667729679740734e-03  2.3977418783307958e-03  2.4291160127718134e-03 
 2.4609006736005211e-03  2.4931012325002488e-03  2.5257231314420930e-03  2.5587718836046144e-03 
 2.5922530743055896e-03  2.6261723619459354e-03  2.6605354789659948e-03  2.6953482328143305e-03 
 2.7306165069292021e-03  2.7663462617328756e-03  2.8025435356389540e-03  2.8392144460728827e-03 
 2.8763651905058000e-03  2.9140020475019401e-03  2.9521313777797153e-03  2.9907596252866930e-03 
 3.0298933182886421e-03  3.0695390704728203e-03  3.1097035820657087e-03  3.1503936409653615e-03 
 3.1916161238885821e-03  3.2333779975330921e-03  3.2756863197549377e-03  3.3185482407612722e-03 
 3.3619710043187607e-03  3.4059619489777964e-03  3.4505285093127274e-03  3.4956782171783238e-03 
 3.5414187029826761e-03  3.5877576969767550e-03  3.6347030305608295e-03  3.6822626376080136e-03 
 3.7304445558050954e-03  3.7792569280109267e-03  3.8287080036325891e-03  3.8788061400195609e-03 
 3.9295598038761306e-03  3.9809775726922869e-03  4.0330681361933430e-03  4.0858402978085056e-03 
 4.1393029761586922e-03  4.1934652065637916e-03  4.2483361425696541e-03  4.3039250574950600e-03 
 4.3602413459989421e-03  4.4172945256680928e-03  4.4750942386256711e-03  4.5336502531607373e-03 
 4.5929724653791110e-03  4.6530709008758510e-03  4.7139557164295985e-03  4.7756372017190938e-03 
 4.8381257810621581e-03  4.9014320151774295e-03  4.9655666029691471e-03  5.0305403833352958e-03 
 5.0963643369994066e-03  5.1630495883663039e-03  5.2306074074021944e-03  5.2990492115392871e-03 
 5.3683865676053787e-03  5.4386311937786765e-03  5.5097949615681898e-03  5.5818898978200549e-03 
 5.6549281867500877e-03  5.7289221720029631e-03  5.8038843587382904e-03  5.8798274157440518e-03 
 5.9567641775776321e-03  6.0347076467348977e-03  6.1136709958476499e-03  6.1936675699098267e-03 
 6.2747108885328482e-03  6.3568146482304499e-03  6.4399927247334428e-03  6.5242591753347148e-03 
 6.6096282412649865e-03  6.6961143500995877e-03  6.7837321181967543e-03  6.8724963531678349e-03 
 6.9624220563798082e-03  7.0535244254905467e-03  7.1458188570172635e-03  7.2393209489385636e-03 
 7.3340465033305121e-03  7.4300115290372630e-03  7.5272322443765685e-03  7.6257250798807122e-03 
 7.7255066810733219e-03  7.8265939112824850e-03  7.9290038544907061e-03  8.0327538182221308e-03 
 8.1378613364675740e-03  8.2443441726477718e-03  8.3522203226154817e-03  8.4615080176968071e-03 
 8.5722257277723295e-03  8.6843921643985737e-03  8.7980262839702957e-03  8.9131472909241595e-03 
 9.0297746409843428e-03  9.1479280444505991e-03  9.2676274695293118e-03  9.3888931457082256e-03 
 9.5117455671752393e-03  9.6362054962819792e-03  9.7622939670526914e-03  9.8900322887390413e-03 
 1.0019442049421420e-02  1.0150545119657392e-02  1.0283363656177876e-02  1.0417920105631645e-02 
 1.0554237208378923e-02  1.0692338002334521e-02  1.0832245826861315e-02  1.0973984326714641e-02 
 1.1117577456038323e-02  1.1263049482412990e-02  1.1410424990957329e-02  1.1559728888483067e-02 
 1.1710986407704222e-02  1.1864223111501558e-02  1.2019464897242736e-02  1.2176738001159038e-02 
 1.2336069002779351e-02  1.2497484829422170e-02  1.2661012760746387e-02  1.2826680433361602e-02 
 1.2994515845498810e-02  1.3164547361742097e-02  1.3336803717822419e-02  1.3511314025473932e-02 
 1.3688107777353986e-02  1.3867214852027434e-02  1.4048665519016186e-02  1.4232490443914836e-02 
 1.4418720693573212e-02  1.4607387741346765e-02  1.4798523472415587e-02  1.4992160189173166e-02 
 1.5188330616685506e-02  1.5387067908221764e-02  1.5588405650857220e-02  1.5792377871149586e-02 
 1.5999019040889562e-02  1.6208364082926661e-02  1.6420448377071264e-02  1.6635307766073835e-02 
 1.6852978561682511e-02  1.7073497550779835e-02  1.7296902001599813e-02  1.7523229670026359e-02 
 1.7752518805974126e-02  1.7984808159852813e-02  1.8220136989116099e-02  1.8458545064896251e-02 
 1.8700072678725477e-02  1.8944760649345388e-02  1.9192650329605404e-02  1.9443783613451487e-02 
 1.9698202943006327e-02  1.9955951315742165e-02  2.0217072291747459e-02  2.0481610001088644e-02 
 2.0749609151268247e-02  2.1021115034780474e-02  2.1296173536765862e-02  2.1574831142765920e-02 
 2.1857134946579291e-02  2.2143132658220727e-02  2.2432872611984199e-02  2.2726403774611510e-02 
 2.3023775753567764e-02  2.3325038805425205e-02  2.3630243844356594e-02  2.3939442450739944e-02 
 2.4252686879875657e-02  2.4570030070817813e-02  2.4891525655320983e-02  2.5217227966904145e-02 
 2.5547192050033151e-02  2.5881473669423401e-02  2.6220129319464221e-02  2.6563216233766455e-02 
 2.6910792394835212e-02  2.7262916543868990e-02  2.7619648190687060e-02  2.7981047623786788e-02 
 2.8347175920532541e-02  2.8718094957477881e-02  2.9093867420822879e-02  2.9474556817008245e-02 
 2.9860227483447951e-02  3.0250944599402595e-02  3.0646774196994710e-02  3.1047783172368407e-02 
 3.1454039296994959e-02  3.1865611229126359e-02  3.2282568525398722e-02  3.2704981652587506e-02 
 3.3132921999516632e-02  3.3566461889123204e-02  3.4005674590680469e-02  3.4450634332180353e-02 
 3.4901416312878214e-02  3.5358096716001708e-02  3.5820752721625888e-02  3.6289462519716882e-02 
 3.6764305323346139e-02  3.7245361382077680e-02  3.7732711995530320e-02  3.8226439527117712e-02 
 3.8726627417967806e-02  3.9233360201024664e-02  3.9746723515334682e-02  4.0266804120519833e-02 
 4.0793689911440251e-02  4.1327469933048630e-02  4.1868234395439102e-02  4.2416074689092823e-02 
 4.2971083400323351e-02  4.3533354326923880e-02  4.4102982494019241e-02  4.4680064170125475e-02 
 4.5264696883419317e-02  4.5856979438220820e-02  4.6457011931691432e-02  4.7064895770750723e-02 
 4.7680733689214230e-02  4.8304629765155989e-02  4.8936689438497737e-02  4.9577019528828647e-02 
 5.0225728253458030e-02  5.0882925245704341e-02  5.1548721573423467e-02  5.2223229757779439e-02 
 5.2906563792260858e-02  5.3598839161945869e-02  5.4300172863019677e-02  5.5010683422546988e-02 
 5.5730490918503468e-02  5.6459717000069125e-02  5.7198484908187387e-02  5.7946919496393058e-02 
 5.8705147251912899e-02  5.9473296317042290e-02  6.0251496510801410e-02  6.1039879350875244e-02 
 6.1838578075840187e-02  6.2647727667681757e-02  6.3467464874606819e-02  6.4297928234154381e-02 
 6.5139258096608810e-02  6.5991596648719314e-02  6.6855087937729887e-02  6.7729877895723448e-02 
 6.8616114364285052e-02  6.9513947119487218e-02  7.0423527897202479e-02  7.1345010418747190e-02 
 7.2278550416860696e-02  7.3224305662024577e-02  7.4182435989126300e-02  7.5153103324471601e-02 
 7.6136471713150342e-02  7.7132707346760768e-02  7.8141978591496103e-02  7.9164456016598869e-02 
 8.0200312423187495e-02  8.1249722873460148e-02  8.2312864720280626e-02  8.3389917637151409e-02 
 8.4481063648578922e-02  8.5586487160836167e-02  8.6706374993127708e-02  8.7840916409162653e-02 
 8.8990303149140776e-02  9.0154729462156483e-02  9.1334392139028275e-02  9.2529490545556259e-02 
 9.3740226656215564e-02  9.4966805088290571e-02  9.6209433136455705e-02  9.7468320807808637e-02 
 9.8743680857362140e-02  1.0003572882400003e-01  1.0134468306690390e-01  1.0267076480245622e-01 
 1.0401419814162652e-01  1.0537521012784659e-01  1.0675403077538148e-01  1.0815089310820232e-01 
 1.0956603319936803e-01  1.1099969021092219e-01  1.1245210643431221e-01  1.1392352733133632e-01 
 1.1541420157562844e-01  1.1692438109468380e-01  1.1845432111243551e-01  1.2000428019238794e-01 
 1.2157452028131471e-01  1.2316530675352813e-01  1.2477690845572824e-01  1.2640959775243846e-01 
 1.2806365057203595e-01  1.2973934645338397e-01  1.3143696859307483e-01  1.3315680389329060e-01 
 1.3489914301029041e-01  1.3666428040353196e-01  1.3845251438543593e-01  1.4026414717180144e-01 
 1.4209948493288144e-01  1.4395883784512536e-01  1.4584252014360108e-01  1.4775085017510040e-01 
 1.4968415045194061e-01  1.5164274770646993e-01  1.5362697294628611e-01  1.5563716151017723e-01 
 1.5767365312479506e-01  1.5973679196206955e-01  1.6182692669737467e-01  1.6394441056845535e-01 
 1.6608960143512566e-01  1.6826286183974784e-01  1.7046455906850280e-01  1.7269506521346251e-01 
 1.7495475723547424e-01  1.7724401702786802e-01  1.7956323148099773e-01  1.8191279254762527e-01 
 1.8429309730916341e-01  1.8670454804278222e-01  1.8914755228939512e-01  1.9162252292253437e-01 
 1.9412987821812774e-01  1.9667004192518781e-01  1.9924344333742697e-01  2.0185051736580886e-01 
 2.0449170461204927e-01  2.0716745144307921e-01  2.0987821006648158e-01  2.1262443860691560e-01 
 2.1540660118354099e-01  2.1822516798845490e-01  2.2108061536615586e-01  2.2397342589404698e-01 
 2.2690408846399304e-01  2.2987309836494277e-01  2.3288095736663636e-01  2.3592817380440417e-01 
 2.3901526266507678e-01  2.4214274567401922e-01  2.4531115138330373e-01  2.4852101526103632e-01 
 2.5177287978185203e-01  2.5506729451859472e-01  2.5840481623519590e-01  2.6178600898076926e-01 
 2.6521144418493642e-01  2.6868170075439968e-01  2.7219736517077897e-01  2.7575903158972809e-01 
 2.7936730194134907e-01  2.8302278603191938e-01  2.8672610164695117e-01  2.9047787465559666e-01 
 2.9427873911642438e-01  2.9812933738457459e-01  3.0203032022031956e-01  3.0598234689904308e-01 
 3.0998608532266014e-01  3.1404221213249361e-01  3.1815141282362830e-01  3.2231438186076133e-01 
 3.2653182279556825e-01  3.3080444838560497e-01  3.3513298071476538e-01  3.3951815131531554e-01 
 3.4396070129152401e-01  3.4846138144491051e-01  3.5302095240113301e-01  3.5764018473853532e-01 
 3.6231985911837727e-01  3.6706076641676594e-01  3.7186370785831918e-01  3.7672949515157206e-01 
 3.8165895062615818e-01  3.8665290737178543e-01  3.9171220937902973e-01  3.9683771168197218e-01 
 4.0203028050270084e-01  4.0729079339770557e-01  4.1262013940618597e-01  4.1801921920030183e-01 
 4.2348894523738867e-01  4.2903024191416533e-01  4.3464404572295895e-01  4.4033130540997467e-01 
 4.4609298213563581e-01  4.5193004963702221e-01  4.5784349439243549e-01  4.6383431578811191e-01 
 4.6990352628712717e-01  4.7605215160050079e-01  4.8228123086054503e-01  4.8859181679648073e-01 
 4.9498497591235080e-01  5.0146178866726221e-01  5.0802334965798590e-01  5.1467076780394649e-01 
 5.2140516653463231e-01  5.2822768397945707e-01  5.3513947316010746e-01  5.4214170218540558e-01 
 5.4923555444872263e-01  5.5642222882797532e-01  5.6370293988823883e-01  5.7107891808701083e-01 
 5.7855140998216359e-01  5.8612167844261076e-01  5.9379100286174091e-01  6.0156067937363489e-01 
 6.0943202107211547e-01  6.1740635823266443e-01  6.2548503853724169e-01  6.3366942730204656e-01 
 6.4196090770825986e-01  6.5036088103580514e-01  6.5887076690016722e-01  6.6749200349231153e-01 
 6.7622604782174167e-01  6.8507437596273701e-01  6.9403848330381346e-01  7.0311988480044685e-01 
 7.1232011523110494e-01  7.2164072945662794e-01  7.3108330268300503e-01  7.4064943072758327e-01 
 7.5034073028877180e-01  7.6015883921926264e-01  7.7010541680283306e-01  7.8018214403476871e-01 
 7.9039072390595511e-01  8.0073288169068790e-01  8.1121036523824819e-01  8.2182494526829286e-01 
 8.3257841567011093e-01  8.4347259380579431e-01  8.5450932081737718e-01  8.6569046193799315e-01 
 8.7701790680710368e-01  8.8849356978985194e-01  9.0011939030059540e-01  9.1189733313067078e-01 
 9.2382938878045107e-01  9.3591757379573659e-01  9.4816393110856823e-01  9.6057053038247886e-01 
 9.7313946836227516e-01  9.8587286922839057e-01  9.9877288495587835e-01  1.0118416956781000e+00 
 1.0250815100551720e+00  1.0384945656472369e+00  1.0520831292926134e+00  1.0658494974909001e+00 
 1.0797959967910877e+00  1.0939249841847518e+00  1.1082388475043905e+00  1.1227400058269732e+00 
 1.1374309098827704e+00  1.1523140424695333e+00  1.1673919188720947e+00  1.1826670872874490e+00 
 1.1981421292554171e+00  1.2138196600949234e+00  1.2297023293459939e+00  1.2457928212175344e+00 
 1.2620938550409682e+00  1.2786081857298095e+00  1.2953386042452502e+00  1.3122879380678394e+00 
 1.3294590516753344e+00  1.3468548470268036e+00  1.3644782640530653e+00  1.3823322811535421e+00 
 1.4004199156996187e+00  1.4187442245445832e+00  1.4373083045402442e+00  1.4561152930603052e+00 
 1.4751683685305914e+00  1.4944707509662001e+00  1.5140257025157069e+00  1.5338365280124668e+00 
 1.5539065755331398e+00  1.5742392369635263e+00  1.5948379485718009e+00  1.6157061915892532e+00 
 1.6368474927986205e+00  1.6582654251301265e+00  1.6799636082653115e+00  1.7019457092487695e+00 
 1.7242154431078860e+00  1.7467765734806868e+00  1.7696329132519035e+00  1.7927883251973571e+00 
 1.8162467226367787e+00  1.8400120700951688e+00  1.8640883839728153e+00  1.8884797332240602e+00 
 1.9131902400449847e+00  1.9382240805700544e+00  1.9635854855779018e+00  1.9892787412063349e+00 
 2.0153081896767073e+00  2.0416782300277641e+00  2.0683933188590871e+00  2.0954579710842736e+00 
 2.1228767606939658e+00  2.1506543215288678e+00  2.1787953480628728e+00  2.2073045961964448e+00 
 2.2361868840603720e+00  2.2654470928300467e+00  2.2950901675503927e+00  2.3251211179715914e+00 
 2.3555450193957452e+00  2.3863670135345973e+00  2.4175923093785210e+00  2.4492261840768332e+00 
 2.4812739838296505e+00  2.5137411247914061e+00  2.5466330939861992e+00  2.5799554502351083e+00 
 2.6137138250956511e+00  2.6479139238135270e+00  2.6825615262868188e+00  2.7176624880428086e+00 
 2.7532227412275772e+00  2.7892482956085503e+00  2.8257452395901619e+00  2.8627197412428105e+00 
 2.9001780493452793e+00  2.9381264944407923e+00  2.9765714899068962e+00  3.0155195330393174e+00 
 3.0549772061500500e+00  3.0949511776797634e+00  3.1354482033247879e+00  3.1764751271788447e+00 
 3.2180388828897124e+00  3.2601464948310319e+00  3.3028050792894432e+00  3.3460218456672490e+00 
 3.3898040977008281e+00  3.4341592346949810e+00  3.4790947527734279e+00  3.5246182461456756e+00 
 3.5707374083904551e+00  3.6174600337559526e+00  3.6647940184770595e+00  3.7127473621098535e+00 
 3.7613281688835487e+00  3.8105446490701032e+00  3.8604051203718157e+00  3.9109180093270091e+00 
 3.9620918527341411e+00  4.0139352990945474e+00  4.0664571100740554e+00  4.1196661619837265e+00 
 4.1735714472799774e+00  4.2281820760843223e+00  4.2835072777230074e+00  4.3395564022867896e+00 
 4.3963389222111227e+00  4.4538644338770208e+00  4.5121426592328726e+00  4.5711834474374715e+00 
 4.6309967765245457e+00  4.6915927550890721e+00  4.7529816239956624e+00  4.8151737581092551e+00 
 4.8781796680485483e+00  4.9420100019622817e+00  5.0066755473288067e+00  5.0721872327792044e+00 
 5.1385561299442362e+00  5.2057934553254910e+00  5.2739105721909869e+00  5.3429189924956004e+00 
 5.4128303788266106e+00  5.4836565463747018e+00  5.5554094649307633e+00  5.6281012609088101e+00 
 5.7017442193953762e+00  5.7763507862257217e+00  5.8519335700872146e+00  5.9285053446502198e+00 
 6.0060790507268971e+00  6.0846677984581881e+00  6.1642848695295145e+00  6.2449437194153852e+00 
 6.3266579796534090e+00  6.4094414601480505e+00  6.4933081515045492e+00  6.5782722273933523e+00 
 6.6643480469455110e+00  6.7515501571793948e+00  6.8398932954591851e+00  6.9293923919855160e+00 
 7.0200625723187171e+00  7.1119191599350664e+00  7.2049776788165012e+00  7.2992538560742002e+00 
 7.3947636246065072e+00  7.4915231257916242e+00  7.5895487122155627e+00  7.6888569504357127e+00 
 7.7894646237807104e+00  7.8913887351868057e+00  7.9946465100714157e+00  8.0992553992442620e+00 
 8.2052330818565888e+00  8.3125974683890007e+00  8.4213667036783555e+00  8.5315591699842983e+00 
 8.6431934900959071e+00  8.7562885304789759e+00  8.8708634044645116e+00  8.9869374754789124e+00 
 9.1045303603164527e+00  9.2236619324545472e+00  9.3443523254124354e+00  9.4666219361537802e+00 
 9.5904914285338290e+00  9.7159817367915799e+00  9.8431140690878252e+00  9.9719099110893090e+00 
 1.0102391029599877e+01  1.0234579476239118e+01  1.0368497591169131e+01  1.0504168006870078e+01 
 1.0641613651965123e+01  1.0780857755095420e+01  1.0921923848845811e+01  1.1064835773721894e+01 
 1.1209617682179116e+01  1.1356294042704601e+01  1.1504889643952378e+01  1.1655429598932738e+01 
 1.1807939349256364e+01  1.1962444669434054e+01  1.2118971671232675e+01  1.2277546808088037e+01 
 1.2438196879575717e+01  1.2600949035940157e+01  1.2765830782683146e+01  1.2932869985212324e+01 
 1.3102094873550481e+01  1.3273534047106525e+01  1.3447216479508823e+01  1.3623171523501835e+01 
 1.3801428915906783e+01  1.3982018782647257e+01  1.4164971643840556e+01  1.4350318418955665e+01 
 1.4538090432038727e+01  1.4728319417006860e+01  1.4921037523011297e+01  1.5116277319870635e+01 
 1.5314071803575256e+01  1.5514454401863633e+01  1.5717458979871823e+01  1.5923119845856686e+01 
 1.6131471756994063e+01  1.6342549925252836e+01  1.6556390023345827e+01  1.6773028190758573e+01 
 1.6992501039856990e+01  1.7214845662074932e+01  1.7440099634182769e+01  1.7668301024637906e+01 
 1.7899488400018470e+01  1.8133700831541152e+01  1.8370977901664329e+01  1.8611359710777588e+01 
 1.8854886883978807e+01  1.9101600577939909e+01  1.9351542487862304e+01  1.9604754854523694e+01 
 1.9861280471416705e+01  2.0121162691981162e+01  2.0384445436930871e+01  2.0651173201676379e+01 
 2.0921391063844755e+01  2.1195144690897859e+01  2.1472480347850219e+01  2.1753444905087946e+01 
 2.2038085846289938e+01  2.2326451276452726e+01  2.2618589930020349e+01  2.2914551179120579e+01 
 2.3214385041908926e+01  2.3518142191021838e+01  2.3825873962140491e+01  2.4137632362666672e+01 
 2.4453470080511998e+01  2.4773440493002553e+01  2.5097597675899618e+01  2.5425996412538616e+01 
 2.5758692203087666e+01  2.6095741273927217e+01  2.6437200587152446e+01  2.6783127850200007e+01 
 2.7133581525600679e+01  2.7488620840859728e+01  2.7848305798466463e+01  2.8212697186034799e+01 
 2.8581856586576521e+01  2.8955846388908959e+01  2.9334729798198840e+01  2.9718570846644109e+01 
 3.0107434404295535e+01  3.0501386190019947e+01  3.0900492782606669e+01  3.1304821632019816e+01 
 3.1714441070797278e+01  3.2129420325599142e+01  3.2549829528907161e+01  3.2975739730877308e+01 
 3.3407222911347418e+01  3.3844351992001975e+01  3.4287200848696010e+01  3.4735844323940327e+01 
 3.5190358239550065e+01  3.5650819409458741e+01  3.6117305652700018e+01  3.6589895806559277e+01 
 3.7068669739897338e+01  3.7553708366648458e+01  3.8045093659495009e+01  3.8542908663721086e+01 
 3.9047237511247104e+01  3.9558165434848739e+01  4.0075778782561116e+01  4.0600165032271981e+01 
 4.1131412806505615e+01  4.1669611887400293e+01  4.2214853231881648e+01  4.2767228987034628e+01 
 4.3326832505676556e+01  4.3893758362133994e+01  4.4468102368226035e+01  4.5049961589456679e+01 
 4.5639434361419212e+01  4.6236620306415091e+01  4.6841620350290384e+01  4.7454536739492475e+01 
 4.8075473058349921e+01  4.8704534246578582e+01  4.9341826617016338e+01  4.9987457873590692e+01 
 5.0641537129520678e+01  5.1304174925757302e+01  5.1975483249665274e+01  5.2655575553949127e+01 
 5.3344566775826955e+01  5.4042573356455129e+01  5.4749713260607095e+01  5.5466105996609713e+01 