  <PP_INFO>

############################################################
#    Opium Parameter File                                  #
############################################################
#-----------------------------------------------------------
#Command line   : opium Bi Bi.log ae ps nl tc2 ke upf qmcpack rpt 
 
#Opium version  : 4.1 
#Compile Host   : py-garuda.cos.ncsu.edu 
#Compile OS     : Linux 5.15.0-113-generic x86_64 
#Compile Date   : Sat Jul 13 02:11:52 EDT 2024 
#-----------------------------------------------------------
#Execution Host : py-garuda.cos.ncsu.edu 
#Execution Date : Mon Jan 20 22:26:05 2025
 
#-----------------------------------------------------------
############################################################
[Atom]
Bi
17
100   2.00 -
200   2.00 -
210   6.00 -
300   2.00 -
310   6.00 -
320   10.0 -
400   2.00 -
410   6.00 -
420   10.0 -
430   14.0 -
500   2.00 -
510   6.00 -
520   10.0 -
600   2.00 -
610   2.00 -
620   0.50 -
530   0.10 -

[Pseudo]
4 -1 -1 -1 -1
g

[KBdesign]
s

[Relativity]
frl

[XC]
pbe

[Gaussinfo]
5 5 3
3 3 3 3 4  3 3 3
2  3.3985625  137.0729140
2  2.2363910  34.3916416
4  1.0636817  -1.8019312
2  1.2456199  39.8269678
2  0.3667618  0.8447335
4  0.8237604  -4.3918552
2  0.9246278  -3.7879179
2  0.8350341  24.0963136
4  1.2398550  0.4563745
2  1.8474456  -0.3829618
2  1.0698424  -0.5464445
4  0.8621929  -0.2367081
1  8.0291604  5.0000000
3  7.4815510  40.1458018
2  1.7756833  -6.2512149
2  0.6980853  -0.2864101
2  3.62419551 -0.05680288
2  2.08401707 3.65950697
4  1.27996161 3.06903534
2  1.11843551 -4.02503595
2  1.87735261 3.94247322
4  1.00237438 -0.27672935
2  1.01337747 1.74543289
2  0.95943686 -1.64544080
4  1.00489490 0.00755595

[Configs]
8

600   2.00 -
610   2.00 -
620   0.00 -
530   0.00 -

600   2.00 -
610   1.50 -
620   0.50 -
530   0.00 -

600   2.00 -
610   1.50 -
620   0.00 -
530   0.50 -

600   2.00 -
610   1.00 -
620   0.00 -
530   0.00 -

600   2.00 -
610   0.50 -
620   0.50 -
530   0.00 -

600   2.00 -
610   0.50 -
620   0.00 -
530   0.50 -

600   2.00 -
610   0.00 -
620   0.00 -
530   0.00 -

600   1.00 -
610   0.00 -
620   0.00 -
530   0.00 -

############################################################
############################################################
  </PP_INFO>



<PP_HEADER>
   0         Version Number
   Bi        Element
   NC        Norm - Conserving pseudopotential
    F      Nonlinear Core Correction
SLA  PW   PBE  PBE     PBE  Exchange-Correlation functional
 5          Z valence
 0          Total energy
 0.000000   0.000000     Suggested cutoff for wfc and rho
 3           Max angular momentum component
 1190           Number of points in mesh
 7  6     Number of Wavefuncitons, Number of Projectors
 Wavefunctions         nl  l   occ
                      6S  0  2.000000
                      6P  1  0.666667
                      6P  1  1.333333
                      6D  2  0.200000
                      6D  2  0.300000
                      5F  3  0.042857
                      5F  3  0.057143
</PP_HEADER>
<PP_MESH>
  <PP_R>
 2.2924892220200556e-05  2.3224861394139801e-05  2.3528755624932066e-05  2.3836626271425666e-05 
 2.4148525364492608e-05  2.4464505615822006e-05  2.4784620426828340e-05  2.5108923897676599e-05 
 2.5437470836425238e-05  2.5770316768288875e-05  2.6107517945022194e-05  2.6449131354426648e-05 
 2.6795214729981490e-05  2.7145826560600894e-05  2.7501026100518766e-05  2.7860873379302701e-05 
 2.8225429211999311e-05  2.8594755209411999e-05  2.8968913788513367e-05  2.9347968182993811e-05 
 2.9731982453948179e-05  3.0121021500702259e-05  3.0515151071780911e-05  3.0914437776019722e-05 
 3.1318949093822008e-05  3.1728753388563285e-05  3.2143919918144725e-05  3.2564518846697975e-05 
 3.2990621256443019e-05  3.3422299159701277e-05  3.3859625511065825e-05  3.4302674219730926e-05 
 3.4751520161982883e-05  3.5206239193854158e-05  3.5666908163943448e-05  3.6133604926403140e-05 
 3.6606408354096870e-05  3.7085398351929230e-05  3.7570655870349907e-05  3.8062262919034467e-05 
 3.8560302580744243e-05  3.9064859025367390e-05  3.9576017524143956e-05  4.0093864464076857e-05 
 4.0618487362531472e-05  4.1149974882026277e-05  4.1688416845217060e-05  4.2233904250077153e-05 
 4.2786529285276292e-05  4.3346385345760714e-05  4.3913567048537206e-05  4.4488170248663398e-05 
 4.5070292055447758e-05  4.5660030848861151e-05  4.6257486296163292e-05  4.6862759368746777e-05 
 4.7475952359201465e-05  4.8097168898602234e-05  4.8726513974022828e-05  4.9364093946278793e-05 
 5.0010016567903012e-05  5.0664391001355867e-05  5.1327327837474112e-05  5.1998939114160906e-05 
 5.2679338335320482e-05  5.3368640490040651e-05  5.4066962072026178e-05  5.4774421099286464e-05 
 5.5491137134080995e-05  5.6217231303125430e-05  5.6952826318062531e-05  5.7698046496200623e-05 
 5.8453017781523498e-05  5.9217867765975293e-05  5.9992725711023790e-05  6.0777722569505942e-05 
 6.1572991007759252e-05  6.2378665428042507e-05  6.3194881991250357e-05  6.4021778639924648e-05 
 6.4859495121567115e-05  6.5708173012257002e-05  6.6567955740577772e-05  6.7438988611856875e-05 
 6.8321418832722694e-05  6.9215395535982826e-05  7.0121069805827881e-05  7.1038594703365119e-05 
 7.1968125292485886e-05  7.2909818666072178e-05  7.3863833972545462e-05  7.4830332442763178e-05 
 7.5809477417267156e-05  7.6801434373888541e-05  7.7806370955714016e-05  7.8824456999417641e-05 
 7.9855864563963986e-05  8.0900767959686336e-05  8.1959343777745521e-05  8.3031770919974300e-05 
 8.4118230629112226e-05  8.5218906519435983e-05  8.6333984607790768e-05  8.7463653345027520e-05 
 8.8608103647851521e-05  8.9767528931087944e-05  9.0942125140369053e-05  9.2132090785249942e-05 
 9.3337626972756825e-05  9.4558937441374674e-05  9.5796228595479543e-05  9.7049709540221349e-05 
 9.8319592116863236e-05  9.9606090938582925e-05  1.0090942342674335e-04  1.0222980984763708e-04 
 1.0356747334971192e-04  1.0492264000128348e-04  1.0629553882874127e-04  1.0768640185525476e-04 
 1.0909546413998588e-04  1.1052296381781439e-04  1.1196914213958347e-04  1.1343424351287162e-04 
 1.1491851554329783e-04  1.1642220907636804e-04  1.1794557823986827e-04  1.1948888048681294e-04 
 1.2105237663895495e-04  1.2263633093086534e-04  1.2424101105458949e-04  1.2586668820488734e-04 
 1.2751363712506673e-04  1.2918213615341505e-04  1.3087246727023927e-04  1.3258491614552133e-04 
 1.3431977218719687e-04  1.3607732859006612e-04  1.3785788238534428e-04  1.3966173449086067e-04 
 1.4148918976191445e-04  1.4334055704279608e-04  1.4521614921898221e-04  1.4711628327001482e-04 
 1.4904128032307106e-04  1.5099146570723458e-04  1.5296716900847689e-04  1.5496872412535832e-04 
 1.5699646932545761e-04  1.5905074730253956e-04  1.6113190523447179e-04  1.6324029484189820e-04 
 1.6537627244768056e-04  1.6754019903711807e-04  1.6973244031895479e-04  1.7195336678718501e-04 
 1.7420335378366794e-04  1.7648278156156112e-04  1.7879203534958431e-04  1.8113150541712391e-04 
 1.8350158714018966e-04  1.8590268106823349e-04  1.8833519299184422e-04  1.9079953401132652e-04 
 1.9329612060617828e-04  1.9582537470547577e-04  1.9838772375918186e-04  2.0098360081038518e-04 
 2.0361344456848590e-04  2.0627769948333837e-04  2.0897681582036440e-04  2.1171124973664909e-04 
 2.1448146335803256e-04  2.1728792485721017e-04  2.2013110853285494e-04  2.2301149488977517e-04 
 2.2592957072012059e-04  2.2888582918565199e-04  2.3188076990108628e-04  2.3491489901853236e-04 
 2.3798872931303280e-04  2.4110278026922335e-04  2.4425757816912743e-04  2.4745365618109862e-04 
 2.5069155444992812e-04  2.5397182018812979e-04  2.5729500776842072e-04  2.6066167881741165e-04 
 2.6407240231052264e-04  2.6752775466814199e-04  2.7102831985304214e-04  2.7457468946907122e-04 
 2.7816746286113479e-04  2.8180724721648737e-04  2.8549465766734800e-04  2.8923031739485938e-04 
 2.9301485773440669e-04  2.9684891828231472e-04  3.0073314700394165e-04  3.0466820034318612e-04 
 3.0865474333342861e-04  3.1269344970992241e-04  3.1678500202365786e-04  3.2093009175671429e-04 
 3.2512941943912228e-04  3.2938369476725505e-04  3.3369363672376841e-04  3.3805997369911123e-04 
 3.4248344361462462e-04  3.4696479404725282e-04  3.5150478235588460e-04  3.5610417580934987e-04 
 3.6076375171608933e-04  3.6548429755552141e-04  3.7026661111112862e-04  3.7511150060528370e-04 
 3.8001978483584285e-04  3.8499229331452291e-04  3.9002986640709241e-04  3.9513335547539325e-04 
 4.0030362302122502e-04  4.0554154283210878e-04  4.1084800012895924e-04  4.1622389171568969e-04 
 4.2167012613077300e-04  4.2718762380078808e-04  4.3277731719597345e-04  4.3844015098781699e-04 
 4.4417708220870721e-04  4.4998908041367515e-04  4.5587712784425053e-04  4.6184221959446323e-04 
 4.6788536377901681e-04  4.7400758170366124e-04  4.8020990803779751e-04  4.8649339098933819e-04 
 4.9285909248185757e-04  4.9930808833405867e-04  5.0584146844158959e-04  5.1246033696123881e-04 
 5.1916581249753966e-04  5.2595902829181767e-04  5.3284113241371025e-04  5.3981328795519408e-04 
 5.4687667322715020e-04  5.5403248195850141e-04  5.6128192349795417e-04  5.6862622301838341e-04 
 5.7606662172388816e-04  5.8360437705955853e-04  5.9124076292398715e-04  5.9897706988455972e-04 
 6.0681460539556626e-04  6.1475469401916214e-04  6.2279867764922312e-04  6.3094791573812777e-04 
 6.3920378552650915e-04  6.4756768227601134e-04  6.5604101950509188e-04  6.6462522922791027e-04 
 6.7332176219634017e-04  6.8213208814515221e-04  6.9105769604040101e-04  7.0010009433106536e-04 
 7.0926081120397712e-04  7.1854139484209170e-04  7.2794341368613265e-04  7.3746845669966227e-04 
 7.4711813363762078e-04  7.5689407531837711e-04  7.6679793389934354e-04  7.7683138315619196e-04 
 7.8699611876572814e-04  7.9729385859246213e-04  8.0772634297893501e-04  8.1829533503983791e-04 
 8.2900262095998473e-04  8.3985001029618063e-04  8.5083933628304041e-04  8.6197245614281191e-04 
 8.7325125139924942e-04  8.8467762819559629e-04  8.9625351761672624e-04  9.0798087601550326e-04 
 9.1986168534340942e-04  9.3189795348549835e-04  9.4409171459973397e-04  9.5644502946076618e-04 
 9.6895998580820897e-04  9.8163869869947193e-04  9.9448331086721044e-04  1.0074959930814517e-03 
 1.0206789445164617e-03  1.0340343931224095e-03  1.0475645960018967e-03  1.0612718397914141e-03 
 1.0751584410477852e-03  1.0892267466396746e-03  1.1034791341442110e-03  1.1179180122488056e-03 
 1.1325458211582226e-03  1.1473650330069839e-03  1.1623781522771633e-03  1.1775877162216498e-03 
 1.1929962952929511e-03  1.2086064935776029e-03  1.2244209492362698e-03  1.2404423349495978e-03 
 1.2566733583699052e-03  1.2731167625787813e-03  1.2897753265506753e-03  1.3066518656225453e-03 
 1.3237492319696635e-03  1.3410703150876354e-03  1.3586180422807345e-03  1.3763953791566213e-03 
 1.3944053301275399e-03  1.4126509389180695e-03  1.4311352890795223e-03  1.4498615045110711e-03 
 1.4688327499876917e-03  1.4880522316950240e-03  1.5075231977712213e-03  1.5272489388558931e-03 
 1.5472327886462314e-03  1.5674781244604148e-03  1.5879883678083819e-03  1.6087669849700742e-03 
 1.6298174875812488e-03  1.6511434332269468e-03  1.6727484260427410e-03  1.6946361173238397e-03 
 1.7168102061421639e-03  1.7392744399715005e-03  1.7620326153208337e-03  1.7850885783759645e-03 
 1.8084462256495243e-03  1.8321095046394970e-03  1.8560824144963504e-03  1.8803690066989094e-03 
 1.9049733857390604e-03  1.9298997098154223e-03  1.9551521915360912e-03  1.9807350986305807e-03 
 2.0066527546710802e-03  2.0329095398031469e-03  2.0595098914859633e-03  2.0864583052422722e-03 
 2.1137593354181388e-03  2.1414175959526436e-03  2.1694377611576453e-03  2.1978245665077540e-03 
 2.2265828094406377e-03  2.2557173501677997e-03  2.2852331124959655e-03  2.3151350846592209e-03 
 2.3454283201620268e-03  2.3761179386332866e-03  2.4072091266915661e-03  2.4387071388216469e-03 
 2.4706172982625479e-03  2.5029449979071632e-03  2.5356957012136758e-03  2.5688749431288945e-03 
 2.6024883310236755e-03  2.6365415456405714e-03  2.6710403420539043e-03  2.7059905506423786e-03 
 2.7413980780744310e-03  2.7772689083064702e-03  2.8136091035941822e-03  2.8504248055170630e-03 
 2.8877222360163633e-03  2.9255076984466112e-03  2.9637875786408855e-03  3.0025683459900510e-03 
 3.0418565545360923e-03  3.0816588440797633e-03  3.1219819413027291e-03  3.1628326609043945e-03 
 3.2042179067536002e-03  3.2461446730553964e-03  3.2886200455330798e-03  3.3316512026256889e-03 
 3.3752454167011951e-03  3.4194100552855334e-03  3.4641525823077418e-03  3.5094805593613790e-03 
 3.5554016469824513e-03  3.6019236059440627e-03  3.6490542985680059e-03  3.6968016900535130e-03 
 3.7451738498233810e-03  3.7941789528877453e-03  3.8438252812256607e-03  3.8941212251847792e-03 
 3.9450752848993395e-03  3.9966960717267080e-03  4.0489923097027222e-03  4.1019728370160690e-03 
 4.1556466075019678e-03  4.2100226921553711e-03  4.2651102806640102e-03  4.3209186829614573e-03 
 4.3774573308005289e-03  4.4347357793472781e-03  4.4927637087958357e-03  4.5515509260043935e-03 
 4.6111073661525767e-03  4.6714430944205260e-03  4.7325683076899147e-03  4.7944933362672731e-03 
 4.8572286456298186e-03  4.9207848381941496e-03  4.9851726551080802e-03  5.0504029780659163e-03 
 5.1164868311474937e-03  5.1834353826812679e-03  5.2512599471317978e-03  5.3199719870118956e-03 
 5.3895831148198462e-03  5.4601050950019306e-03  5.5315498459406484e-03  5.6039294419689542e-03 
 5.6772561154108461e-03  5.7515422586486625e-03  5.8268004262174173e-03  5.9030433369265554e-03 
 5.9802838760094441e-03  6.0585350973010321e-03  6.1378102254439643e-03  6.2181226581235786e-03 
 6.2994859683321485e-03  6.3819139066627539e-03  6.4654204036331568e-03  6.5500195720400991e-03 
 6.6357257093444038e-03  6.7225533000872494e-03  6.8105170183381377e-03  6.8996317301748145e-03 
 6.9899124961956818e-03  7.0813745740650746e-03  7.1740334210918409e-03  7.2679046968416646e-03 
 7.3630042657835699e-03  7.4593481999710642e-03  7.5569527817583148e-03  7.6558345065519621e-03 
 7.7560100855988447e-03  7.8574964488102479e-03  7.9603107476231005e-03  8.0644703578986107e-03 
 8.1699928828588252e-03  8.2768961560616174e-03  8.3851982444146048e-03  8.4949174512284724e-03 
 8.6060723193103240e-03  8.7186816340974246e-03  8.8327644268319933e-03  8.9483399777775287e-03 
 9.0654278194772248e-03  9.1840477400550076e-03  9.3042197865597816e-03  9.4259642683534369e-03 
 9.5493017605431402e-03  9.6742531074586382e-03  9.8008394261749551e-03  9.9290821100812415e-03 
 1.0059002832496307e-02  1.0190623550331466e-02  1.0323966507801298e-02  1.0459054240182990e-02 
 1.0595909577624843e-02  1.0734555649004593e-02  1.0875015885838307e-02  1.1017314026240319e-02 
 1.1161474118935038e-02  1.1307520527321244e-02  1.1455477933589560e-02  1.1605371342893800e-02 
 1.1757226087576894e-02  1.1911067831452135e-02  1.2066922574140375e-02  1.2224816655464087e-02 
 1.2384776759898818e-02  1.2546829921082940e-02  1.2711003526386395e-02  1.2877325321539226e-02 
 1.3045823415320677e-02  1.3216526284309638e-02  1.3389462777697272e-02  1.3564662122162542e-02 
 1.3742153926811666e-02  1.3921968188182076e-02  1.4104135295311919e-02  1.4288686034875878e-02 
 1.4475651596388184e-02  1.4665063577473731e-02  1.4856953989208143e-02  1.5051355261527731e-02 
 1.5248300248710184e-02  1.5447822234927100e-02  1.5649954939869030e-02  1.5854732524444207e-02 
 1.6062189596551809e-02  1.6272361216930795e-02  1.6485282905085236e-02  1.6700990645287205e-02 
 1.6919520892658212e-02  1.7140910579330162e-02  1.7365197120687046e-02  1.7592418421688173e-02 
 1.7822612883274226e-02  1.8055819408857091e-02  1.8292077410894655e-02  1.8531426817551572e-02 
 1.8773908079447243e-02  1.9019562176492071e-02  1.9268430624813114e-02  1.9520555483770477e-02 
 1.9775979363065403e-02  2.0034745429941436e-02  2.0296897416479762e-02  2.0562479626990052e-02 
 2.0831536945497990e-02  2.1104114843330794e-02  2.1380259386801975e-02  2.1660017244996589e-02 
 2.1943435697658546e-02  2.2230562643180910e-02  2.2521446606700857e-02  2.2816136748300558e-02 
 2.3114682871315337e-02  2.3417135430750548e-02  2.3723545541808607e-02  2.4033964988527581e-02 
 2.4348446232532756e-02  2.4667042421902895e-02  2.4989807400152279e-02  2.5316795715330444e-02 
 2.5648062629240926e-02  2.5983664126780621e-02  2.6323656925401371e-02  2.6668098484695365e-02 
 2.7017047016105956e-02  2.7370561492765424e-02  2.7728701659461761e-02  2.8091528042735535e-02 
 2.8459101961109085e-02  2.8831485535449480e-02  2.9208741699467085e-02  2.9590934210351538e-02 
 2.9978127659546824e-02  3.0370387483667449e-02  3.0767779975557238e-02  3.1170372295493198e-02 
 3.1578232482535586e-02  3.1991429466026788e-02  3.2410033077240427e-02  3.2834114061183146e-02 
 3.3263744088550568e-02  3.3698995767839884e-02  3.4139942657620867e-02  3.4586659278967320e-02 
 3.5039221128051516e-02  3.5497704688903092e-02  3.5962187446335059e-02  3.6432747899038942e-02 
 3.6909465572851234e-02  3.7392421034193435e-02  3.7881695903687986e-02  3.8377372869952402e-02 
 3.8879535703573664e-02  3.9388269271265881e-02  3.9903659550212842e-02  4.0425793642598351e-02 
 4.0954759790326763e-02  4.1490647389936033e-02  4.2033547007705951e-02  4.2583550394964087e-02 
 4.3140750503591972e-02  4.3705241501734091e-02  4.4277118789712702e-02  4.4856479016150599e-02 
 4.5443420094304993e-02  4.6038041218615051e-02  4.6640442881466050e-02  4.7250726890172783e-02 
 4.7868996384185264e-02  4.8495355852519552e-02  4.9129911151416510e-02  4.9772769522231995e-02 
 5.0424039609560746e-02  5.1083831479597608e-02  5.1752256638738975e-02  5.2429428052427673e-02 
 5.3115460164244351e-02  5.3810468915248710e-02  5.4514571763573910e-02  5.5227887704277064e-02 
 5.5950537289449959e-02  5.6682642648592463e-02  5.7424327509252762e-02  5.8175717217937559e-02 
 5.8936938761296034e-02  5.9708120787580775e-02  6.0489393628389738e-02  6.1280889320692547e-02 
 6.2082741629144941e-02  6.2895086068695608e-02  6.3718059927488260e-02  6.4551802290063812e-02 
 6.5396454060865916e-02  6.6252157988054200e-02  6.7119058687628991e-02  6.7997302667871865e-02 
 6.8887038354105756e-02  6.9788416113779297e-02  7.0701588281879266e-02  7.1626709186675491e-02 
 7.2563935175802882e-02  7.3513424642684053e-02  7.4475338053298881e-02  7.5449837973303235e-02 
 7.6437089095503008e-02  7.7437258267687575e-02  7.8450514520827533e-02  7.9477029097641344e-02 
 8.0516975481535663e-02  8.1570529425924548e-02  8.2637868983932175e-02  8.3719174538484209e-02 
 8.4814628832792976e-02  8.5924417001241510e-02  8.7048726600671686e-02  8.8187747642081746e-02 
 8.9341672622738691e-02  9.0510696558710718e-02  9.1695017017825550e-02  9.2894834153059228e-02 
 9.4110350736363466e-02  9.5341772192933882e-02  9.6589306635927560e-02  9.7853164901634593e-02 
 9.9133560585110012e-02  1.0043071007627177e-01  1.0174483259647123e-01  1.0307615023554202e-01 
 1.0442488798933383e-01  1.0579127379773720e-01  1.0717553858320583e-01  1.0857791628978318e-01 
 1.0999864392263944e-01  1.1143796158812604e-01  1.1289611253435418e-01  1.1437334319230427e-01 
 1.1586990321747370e-01  1.1738604553206824e-01  1.1892202636774786e-01  1.2047810530892956e-01 
 1.2205454533665802e-01  1.2365161287304999e-01  1.2526957782632031e-01  1.2690871363639700e-01 
 1.2856929732113323e-01  1.3025160952312412e-01  1.3195593455713583e-01  1.3368256045815560e-01 
 1.3543177903007023e-01  1.3720388589498167e-01  1.3899918054316787e-01  1.4081796638369737e-01 
 1.4266055079570611e-01  1.4452724518034521e-01  1.4641836501340891e-01  1.4833422989864947e-01 
 1.5027516362179272e-01  1.5224149420525748e-01  1.5423355396359242e-01  1.5625167955963798e-01 
 1.5829621206142325e-01  1.6036749699980715e-01  1.6246588442687421e-01  1.6459172897509394e-01 
 1.6674538991725468e-01  1.6892723122718159e-01  1.7113762164124907e-01  1.7337693472069798e-01 
 1.7564554891476861e-01  1.7794384762465920e-01  1.8027221926832193e-01  1.8263105734610635e-01 
 1.8502076050726216e-01  1.8744173261731067e-01  1.8989438282630097e-01  1.9237912563795595e-01 
 1.9489638097972464e-01  1.9744657427375115e-01  2.0003013650877188e-01  2.0264750431295367e-01 
 2.0529912002768497e-01  2.0798543178233275e-01  2.1070689356997718e-01  2.1346396532413775e-01 
 2.1625711299650296e-01  2.1908680863567742e-01  2.2195353046695915e-01  2.2485776297316065e-01 
 2.2779999697648784e-01  2.3078072972149011e-01  2.3380046495909615e-01  2.3685971303174760e-01 
 2.3995899095965048e-01  2.4309882252815110e-01  2.4627973837625775e-01  2.4950227608631956e-01 
 2.5276698027487948e-01  2.5607440268471576e-01  2.5942510227808757e-01  2.6281964533120128e-01 
 2.6625860552991210e-01  2.6974256406667874e-01  2.7327210973878602e-01  2.7684783904785321e-01 
 2.8047035630064410e-01  2.8414027371119649e-01  2.8785821150428731e-01  2.9162479802025276e-01 
 2.9544066982117939e-01  2.9930647179848269e-01  3.0322285728189824e-01  3.0719048814989419e-01 
 3.1121003494153060e-01  3.1528217696978206e-01  3.1940760243634347e-01  3.2358700854793765e-01 
 3.2782110163414480e-01  3.3211059726677411e-01  3.3645622038079681e-01  3.4085870539686219e-01 
 3.4531879634541635e-01  3.4983724699244506e-01  3.5441482096686194e-01  3.5905229188956383e-01 
 3.6375044350417424e-01  3.6851006980949808e-01  3.7333197519370998e-01  3.7821697457029518e-01 
 3.8316589351577579e-01  3.8817956840923246e-01  3.9325884657365517e-01  3.9840458641914295e-01 
 4.0361765758797696e-01  4.0889894110159253e-01  4.1424932950947319e-01  4.1966972703999456e-01 
 4.2516104975324015e-01  4.3072422569581842e-01  4.3636019505770474e-01  4.4206991033113513e-01 
 4.4785433647158074e-01  4.5371445106082670e-01  4.5965124447218619e-01  4.6566572003787587e-01 
 4.7175889421858236e-01  4.7793179677524261e-01  4.8418547094308195e-01  4.9052097360791891e-01 
 4.9693937548478290e-01  5.0344176129886753e-01  5.1002922996885192e-01  5.1670289479261988e-01 
 5.2346388363541074e-01  5.3031333912043055e-01  5.3725241882195884e-01  5.4428229546098073e-01 
 5.5140415710338009e-01  5.5861920736072512e-01  5.6592866559368193e-01  5.7333376711808903e-01 
 5.8083576341372878e-01  5.8843592233583097e-01  5.9613552832934313e-01  6.0393588264600240e-01 
 6.1183830356425450e-01  6.1984412661204347e-01  6.2795470479251869e-01  6.3617140881269685e-01 
 6.4449562731511389e-01  6.5292876711250902e-01  6.6147225342557991e-01  6.7012753012384751e-01 
 6.7889605996967450e-01  6.8777932486547477e-01  6.9677882610415853e-01  7.0589608462285480e-01 
 7.1513264125995346e-01  7.2449005701550984e-01  7.3396991331505834e-01  7.4357381227687647e-01 
 7.5330337698274830e-01  7.6316025175226365e-01  7.7314610242072057e-01  7.8326261662064911e-01 
 7.9351150406702720e-01  8.0389449684622694e-01  8.1441334970874024e-01  8.2506984036573694e-01 
 8.3586576978950144e-01  8.4680296251780163e-01  8.5788326696224049e-01  8.6910855572064105e-01 
 8.8048072589352089e-01  8.9200169940470608e-01  9.0367342332614087e-01  9.1549787020694795e-01 
 9.2747703840679363e-01  9.3961295243361498e-01  9.5190766328576903e-01  9.6436324879864921e-01 
 9.7698181399585393e-01  9.8976549144493531e-01  1.0027164416178085e+00  1.0158368532558772e+00 
 1.0291289437399362e+00  1.0425949594649140e+00  1.0562371762195177e+00  1.0700578995708494e+00 
 1.0840594652540498e+00  1.0982442395670446e+00  1.1126146197704538e+00  1.1271730344927344e+00 
 1.1419219441406254e+00  1.1568638413149608e+00  1.1720012512319262e+00  1.1873367321498263e+00 
 1.2028728758014380e+00  1.2186123078320119e+00  1.2345576882430245e+00  1.2507117118417170e+00 
 1.2670771086965256e+00  1.2836566445984701e+00  1.3004531215285784e+00  1.3174693781314297e+00 
 1.3347082901948895e+00  1.3521727711361271e+00  1.3698657724939889e+00  1.3877902844278152e+00 
 1.4059493362227848e+00  1.4243459968018715e+00  1.4429833752444992e+00  1.4618646213119828e+00 
 1.4809929259798476e+00  1.5003715219771094e+00  1.5200036843326175e+00  1.5398927309285309e+00 
 1.5600420230610648e+00  1.5804549660085470e+00  1.6011350096069203e+00  1.6220856488327735e+00 
 1.6433104243940002e+00  1.6648129233281874e+00  1.6865967796088324e+00  1.7086656747594950e+00 
 1.7310233384759817e+00  1.7536735492566740e+00  1.7766201350411028e+00  1.7998669738568820e+00 
 1.8234179944751001e+00  1.8472771770742960e+00  1.8714485539131154e+00  1.8959362100117751e+00 
 1.9207442838424418e+00  1.9458769680286316e+00  1.9713385100537937e+00  1.9971332129791310e+00 
 2.0232654361708322e+00  2.0497395960368139e+00  2.0765601667731040e+00  2.1037316811199935e+00 
 2.1312587311280762e+00  2.1591459689343222e+00  2.1873981075482942e+00  2.2160199216486611e+00 
 2.2450162483901286e+00  2.2743919882209291e+00  2.3041521057110126e+00  2.3343016303910660e+00 
 2.3648456576025190e+00  2.3957893493586684e+00  2.4271379352170741e+00  2.4588967131633503e+00 
 2.4910710505065632e+00  2.5236663847863015e+00  2.5566882246916394e+00  2.5901421509921150e+00 
 2.6240338174808979e+00  2.6583689519302887e+00  2.6931533570597312e+00  2.7283929115164822e+00 
 2.7640935708691186e+00  2.8002613686140418e+00  2.8369024171951538e+00  2.8740229090368743e+00 
 2.9116291175906746e+00  2.9497273983953063e+00  2.9883241901509034e+00  3.0274260158071371e+00 
 3.0670394836656136e+00  3.1071712884966760e+00  3.1478282126708614e+00  3.1890171273051249e+00 
 3.2307449934240720e+00  3.2730188631363930e+00  3.3158458808266853e+00  3.3592332843628721e+00 
 3.4031884063194160e+00  3.4477186752165454e+00  3.4928316167756903e+00  3.5385348551913478e+00 
 3.5848361144195877e+00  3.6317432194834209e+00  3.6792640977952478e+00  3.7274067804966058e+00 
 3.7761794038154566e+00  3.8255902104412254e+00  3.8756475509178396e+00  3.9263598850549681e+00 
 3.9777357833577880e+00  4.0297839284753909e+00  4.0825131166681814e+00  4.1359322592944654e+00 
 4.1900503843164891e+00  4.2448766378261862e+00  4.3004202855908948e+00  4.3566907146192833e+00 
 4.4136974347477889e+00  4.4714500802477932e+00  4.5299584114538431e+00  4.5892323164131685e+00 
 4.6492818125567830e+00  4.7101170483924619e+00  4.7717483052198526e+00  4.8341859988680476e+00 
 4.8974406814558904e+00  4.9615230431752737e+00  5.0264439140978583e+00  5.0922142660053487e+00 
 5.1588452142437564e+00  5.2263480196019216e+00  5.2947340902146136e+00  5.3640149834905309e+00 
 5.4342024080655333e+00  5.5053082257814259e+00  5.5773444536906407e+00  5.6503232660871499e+00 
 5.7242569965639429e+00  5.7991581400974415e+00  5.8750393551591733e+00  5.9519134658550890e+00 
 6.0297934640928643e+00  6.1086925117775630e+00  6.1886239430360419e+00  6.2696012664704082e+00 
 6.3516381674410640e+00  6.4347485103795306e+00  6.5189463411315760e+00  6.6042458893309943e+00 
 6.6906615708044557e+00  6.7782079900078038e+00  6.8668999424942534e+00  6.9567524174148705e+00 
 7.0477806000517758e+00  7.1399998743844888e+00  7.2334258256898636e+00  7.3280742431760322e+00 
 7.4239611226508240e+00  7.5211026692250895e+00  7.6195153000514058e+00  7.7192156470986140e+00 
 7.8202205599626753e+00  7.9225471087142392e+00  8.0262125867836041e+00  8.1312345138832960e+00 
 8.2376306389689606e+00  8.3454189432389700e+00  8.4546176431732896e+00  8.5652451936121139e+00 
 8.6773202908747695e+00  8.7908618759194450e+00  8.9058891375442535e+00  9.0224215156301835e+00 
 9.1404787044264939e+00  9.2600806558790723e+00  9.3812475830023843e+00  9.5039999632954988e+00 
 9.6283585422028519e+00  9.7543443366202602e+00  9.8819786384468582e+00  1.0011283018183402e+01 
 1.0142279328577841e+01  1.0274989708318415e+01  1.0409436585775165e+01  1.0545642682790378e+01 
 1.0683631018518629e+01  1.0823424913317087e+01  1.0965047992686694e+01  1.1108524191264941e+01 
 1.1253877756870873e+01  1.1401133254603034e+01  1.1550315570991023e+01  1.1701449918201376e+01 
 1.1854561838298491e+01  1.2009677207561280e+01  1.2166822240856341e+01  1.2326023496068322e+01 
 1.2487307878588288e+01  1.2650702645860713e+01  1.2816235411990187e+01  1.2983934152408166e+01 
 1.3153827208600923e+01  1.3325943292899311e+01  1.3500311493331235e+01  1.3676961278537581e+01 
 1.3855922502752492e+01  1.4037225410848800e+01  1.4220900643449498e+01  1.4406979242106059e+01 
 1.4595492654544538e+01  1.4786472739980320e+01  1.4979951774502396e+01  1.5175962456528097e+01 
 1.5374537912329208e+01  1.5575711701630418e+01  1.5779517823280878e+01  1.5985990721000254e+01 
 1.6195165289199679e+01  1.6407076878879042e+01  1.6621761303601364e+01  1.6839254845545394e+01 
 1.7059594261637375e+01  1.7282816789763064e+01  1.7508960155060993e+01  1.7738062576298148e+01 
 1.7970162772329001e+01  1.8205299968639103e+01  1.8443513903974285e+01  1.8684844837056584e+01 
 1.8929333553388080e+01  1.9177021372143749e+01  1.9427950153154473e+01  1.9682162303981514e+01 
 1.9939700787083346e+01  2.0200609127076614e+01  2.0464931418091755e+01  2.0732712331225077e+01 
 2.1003997122088233e+01  2.1278831638456573e+01  2.1557262328017483e+01  2.1839336246220199e+01 
 2.2125101064228261e+01  2.2414605076976059e+01  2.2707897211330796e+01  2.3005027034361234e+01 
 2.3306044761714674e+01  2.3611001266103482e+01  2.3919948085902728e+01  2.4232937433860286e+01 
 2.4550022205920900e+01  2.4871255990165782e+01  2.5196693075868964e+01  2.5526388462672529e+01 
 2.5860397869881560e+01  2.6198777745880843e+01  2.6541585277674816e+01  2.6888878400552251e+01 
 2.7240715807877507e+01  2.7597156961009841e+01  2.7958262099352485e+01  2.8324092250533290e+01 
 2.8694709240718513e+01  2.9070175705061605e+01  2.9450555098288682e+01  2.9835911705422536e+01 
 3.0226310652646962e+01  3.0621817918313230e+01  3.1022500344090584e+01  3.1428425646262696e+01 
 3.1839662427171664e+01  3.2256280186812297e+01  3.2678349334577575e+01  3.3105941201158025e+01 
 3.3539128050596815e+01  3.3977983092502527e+01  3.4422580494421766e+01  3.4872995394373625e+01 
 3.5329303913548230e+01  3.5791583169171396e+01  3.6259911287537605e+01  3.6734367417213420e+01 
 3.7215031742414205e+01  3.7701985496554713e+01  3.8195310975978650e+01  3.8695091553865915e+01 
 3.9201411694323994e+01  3.9714356966661555e+01  4.0234014059850360e+01  4.0760470797176268e+01 