  <PP_INFO>

############################################################
#    Opium Parameter File                                  #
############################################################
#-----------------------------------------------------------
#Command line   : opium Te Te.log ae ps nl tc2 ke upf qmcpack rpt 
 
#Opium version  : 4.1 
#Compile Host   : ben-XPS-15-7590 
#Compile OS     : Linux 6.5.0-26-generic x86_64 
#Compile Date   : Wed Apr 17 18:47:06 EDT 2024 
#-----------------------------------------------------------
#Execution Host : ben-XPS-15-7590 
#Execution Date : Fri Apr 19 01:28:58 2024
 
#-----------------------------------------------------------
############################################################
[Atom]
Te
12
100  2.00 -
200  2.00 -
210  6.00 -
300  2.00 -
310  6.00 -
320 10.00 -
400  2.00 -
410  6.00 -
420 10.00 -
500  2.00 -
510  2.00 -
520  1.00 -

[Pseudo]
3 -1 -1 -1
g

[Relativity]
srl

[XC]
pbe

[KBDesign]
s

[Gaussinfo]
6 4
2 4 2 3
2   2.656483  48.2805617309780
2   2.281974  -1.02152466749834
2   2.946988  39.6560237533630
2   2.790001  79.5448296097569
2   1.750168  -2.60049060295425
2   1.909579  -2.72845521418152
2   1.107233  6.84646175702210
2   1.084059  9.41181396042081
1  12.000000    6.000000
3  12.000000    72.0000000000
2  12.000000  -50.5051262924364

[Configs]
8

500  2.00 -
510  3.00 -
520  1.00 -

500  2.00 -
510  3.00 -
520  0.00 -

500  2.00 -
510  2.00 -
520  1.00 -

500  2.00 -
510  2.00 -
520  0.00 -

500  2.00 -
510  1.00 -
520  1.00 -

500  2.00 -
510  1.00 -
520  0.00 -

500  2.00 -
510  0.00 -
520  0.00 -

500  1.00 -
510  0.00 -
520  0.00 -

############################################################
  </PP_INFO>



<PP_HEADER>
   0         Version Number
   Te        Element
   NC        Norm - Conserving pseudopotential
    F      Nonlinear Core Correction
SLA  PW   PBE  PBE     PBE  Exchange-Correlation functional
 6          Z valence
 0          Total energy
 0.000000   0.000000     Suggested cutoff for wfc and rho
 2           Max angular momentum component
 1178           Number of points in mesh
 3  2     Number of Wavefuncitons, Number of Projectors
 Wavefunctions         nl  l   occ
                      5S  0  2.000000
                      5P  1  2.000000
                      5D  2  1.000000
</PP_HEADER>
<PP_MESH>
  <PP_R>
 2.6791614491856221e-05  2.7142179213837298e-05  2.7497331028706526e-05  2.7857129957965909e-05 
 2.8221636808490857e-05  2.8590913182806691e-05  2.8965021489499533e-05  2.9344024953763657e-05 
 2.9727987628086581e-05  3.0116974403074135e-05  3.0511051018417128e-05  3.0910284074001478e-05 
 3.1314741041163808e-05  3.1724490274094207e-05  3.2139601021388309e-05  3.2560143437750359e-05 
 3.2986188595849684e-05  3.3417808498332020e-05  3.3855076089988199e-05  3.4298065270081931e-05 
 3.4746850904839030e-05  3.5201508840099908e-05  3.5662115914137763e-05  3.6128749970644422e-05 
 3.6601489871886007e-05  3.7080415512031030e-05  3.7565607830652568e-05  3.8057148826407258e-05 
 3.8555121570893312e-05  3.9059610222689761e-05  3.9570700041579496e-05  4.0088477402958358e-05 
 4.0613029812432802e-05  4.1144445920608460e-05  4.1682815538072463e-05  4.2228229650571525e-05 
 4.2780780434388813e-05  4.3340561271921906e-05  4.3907666767464678e-05  4.4482192763195649e-05 
 4.5064236355375526e-05  4.5653895910756740e-05  4.6251271083207519e-05  4.6856462830553864e-05 
 4.7469573431641481e-05  4.8090706503621226e-05  4.8719967019460620e-05  4.9357461325684530e-05 
 5.0003297160348014e-05  5.0657583671244332e-05  5.1320431434350990e-05  5.1991952472517657e-05 
 5.2672260274398042e-05  5.3361469813629880e-05  5.4059697568265689e-05  5.4767061540457828e-05 
 5.5483681276401223e-05  5.6209677886536852e-05  5.6945174066019781e-05  5.7690294115454937e-05 
 5.8445163961904045e-05  5.9209911180167845e-05  5.9984665014346420e-05  6.0769556399681720e-05 
 6.1564717984685996e-05  6.2370284153559665e-05  6.3186391048902584e-05  6.4013176594722568e-05 
 6.4850780519744544e-05  6.5699344381025483e-05  6.6559011587877628e-05  6.7429927426104996e-05 
 6.8312239082557130e-05  6.9206095670003957e-05  7.0111648252336217e-05  7.1029049870095616e-05 
 7.1958455566339079e-05  7.2900022412841341e-05  7.3853909536640542e-05  7.4820278146930827e-05 
 7.5799291562307430e-05  7.6791115238367721e-05  7.7795916795673581e-05  7.8813866048079692e-05 
 7.9845135031432574e-05  8.0889898032644996e-05  8.1948331619150633e-05  8.3020614668744859e-05 
 8.4106928399815220e-05  8.5207456401967759e-05  8.6322384667054209e-05  8.7451901620605040e-05 
 8.8596198153673717e-05  8.9755467655097898e-05  9.0929906044182480e-05  9.2119711803810518e-05 
 9.3325086013987306e-05  9.4546232385823095e-05  9.5783357295961278e-05  9.7036669821456124e-05 
 9.8306381775107462e-05  9.9592707741257504e-05  1.0089586511205608e-04  1.0221607412420060e-04 
 1.0355355789615620e-04  1.0490854246586368e-04  1.0628125682894042e-04  1.0767193297738091e-04 
 1.0908080593876419e-04  1.1050811381597399e-04  1.1195409782743869e-04  1.1341900234789780e-04 
 1.1490307494970193e-04  1.1640656644465298e-04  1.1792973092639217e-04  1.1947282581334198e-04 
 1.2103611189221112e-04  1.2261985336206772e-04  1.2422431787898961e-04  1.2584977660129896e-04 
 1.2749650423538855e-04  1.2916477908214805e-04  1.3085488308399700e-04  1.3256710187253441e-04 
 1.3430172481681085e-04  1.3605904507223238e-04  1.3783935963010481e-04  1.3964296936782577e-04 
 1.4147017909973365e-04  1.4332129762862210e-04  1.4519663779792832e-04  1.4709651654460444e-04 
 1.4902125495268071e-04  1.5097117830752881e-04  1.5294661615083692e-04  1.5494790233630223e-04 
 1.5697537508605340e-04  1.5902937704781068e-04  1.6111025535279434e-04  1.6321836167439079e-04 
 1.6535405228758552e-04  1.6751768812917550e-04  1.6970963485876762e-04  1.7193026292057622e-04 
 1.7417994760602907e-04  1.7645906911719245e-04  1.7876801263102629e-04  1.8110716836447995e-04 
 1.8347693164043978e-04  1.8587770295453969e-04  1.8830988804284597e-04  1.9077389795042711e-04 
 1.9327014910082218e-04  1.9579906336641699e-04  1.9836106813974142e-04  2.0095659640570013e-04 
 2.0358608681474738e-04  2.0624998375702095e-04  2.0894873743744434e-04  2.1168280395181287e-04 
 2.1445264536387482e-04  2.1725872978342129e-04  2.2010153144539794e-04  2.2298153079005180e-04 
 2.2589921454412682e-04  2.2885507580312176e-04  2.3184961411462467e-04  2.3488333556273745e-04 
 2.3795675285360538e-04  2.4107038540206589e-04  2.4422475941942998e-04  2.4742040800241450e-04 
 2.5065787122323591e-04  2.5393769622088431e-04  2.5726043729359005e-04  2.6062665599250318e-04 
 2.6403692121659562e-04  2.6749180930880716e-04  2.7099190415344823e-04  2.7453779727487816e-04 
 2.7813008793747411e-04  2.8176938324690797e-04  2.8545629825274901e-04  2.8919145605240830e-04 
 2.9297548789644412e-04  2.9680903329524442e-04  3.0069274012710590e-04  3.0462726474772686e-04 
 3.0861327210113227e-04  3.1265143583205225e-04  3.1674243839976854e-04  3.2088697119345226e-04 
 3.2508573464900940e-04  3.2933943836745778e-04  3.3364880123484998e-04  3.3801455154376734e-04 
 3.4243742711640286e-04  3.4691817542925526e-04  3.5145755373945404e-04  3.5605632921273774e-04 
 3.6071527905310712e-04  3.6543519063417354e-04  3.7021686163222822e-04  3.7506110016105072e-04 
 3.7996872490848215e-04  3.8494056527478554e-04  3.8997746151281604e-04  3.9508026487002627e-04 
 4.0024983773232886e-04  4.0548705376984161e-04  4.1079279808453975e-04  4.1616796735984083e-04 
 4.2161347001214562e-04  4.2713022634436340e-04  4.3271916870144477e-04  4.3838124162795007e-04 
 4.4411740202768019e-04  4.4992861932539538e-04  4.5581587563065044e-04  4.6178016590377267e-04 
 4.6782249812401416e-04  4.7394389345990139e-04  4.8014538644181569e-04  4.8642802513683132e-04 
 4.9279287132584062e-04  4.9924100068299867e-04  5.0577350295751412e-04  5.1239148215781937e-04 
 5.1909605673815045e-04  5.2588835978756906e-04  5.3276953922145698e-04  5.3974075797551626e-04 
 5.4680319420230897e-04  5.5395804147036611e-04  5.6120650896590541e-04  5.6854982169718578e-04 
 5.7598922070153686e-04  5.8352596325509623e-04  5.9116132308529397e-04  5.9889659058611432e-04 
 6.0673307303617545e-04  6.1467209481966332e-04  6.2271499765015467e-04  6.3086314079737079e-04 
 6.3911790131689690e-04  6.4748067428290835e-04  6.5595287302393983e-04  6.6453592936174387e-04 
 6.7323129385326967e-04  6.8204043603581235e-04  6.9096484467536759e-04  7.0000602801823593e-04 
 7.0916551404592116e-04  7.1844485073336304e-04  7.2784560631054709e-04  7.3736936952754038e-04 
 7.4701774992299436e-04  7.5679237809615969e-04  7.6669490598246250e-04  7.7672700713268459e-04 
 7.8689037699579715e-04  7.9718673320549737e-04  8.0761781587049080e-04  8.1818538786857528e-04 
 8.2889123514456940e-04  8.3973716701214447e-04  8.5072501645960016e-04  8.6185664045964542e-04 
 8.7313392028323092e-04  8.8455876181748705e-04  8.9613309588782580e-04  9.0785887858425309e-04 
 9.1973809159195355e-04  9.3177274252619806e-04  9.4396486527163889e-04  9.5631652032603836e-04 
 9.6882979514849874e-04  9.8150680451224832e-04  9.9434969086204103e-04  1.0073606246762379e-03 
 1.0205418048336210e-03  1.0338954589850095e-03  1.0474238439297371e-03  1.0611292459970592e-03 
 1.0750139814325449e-03  1.0890803967895299e-03  1.1033308693256896e-03  1.1177678074047992e-03 
 1.1323936509037556e-03  1.1472108716249212e-03  1.1622219737138647e-03  1.1774294940825659e-03 
 1.1928360028381634e-03  1.2084441037173055e-03  1.2242564345261902e-03  1.2402756675863587e-03 
 1.2565045101863247e-03  1.2729457050391147e-03  1.2896020307457900e-03  1.3064763022650398e-03 
 1.3235713713889115e-03  1.3408901272247758e-03  1.3584354966835895e-03  1.3762104449745508e-03 
 1.3942179761062270e-03  1.4124611333942384e-03  1.4309429999755879e-03  1.4496666993297155e-03 
 1.4686353958063771e-03  1.4878522951604241e-03  1.5073206450935872e-03  1.5270437358033385e-03 
 1.5470249005389526e-03  1.5672675161648266e-03  1.5877750037311808e-03  1.6085508290522234e-03 
 1.6295985032918829e-03  1.6509215835572002e-03  1.6725236734994923e-03  1.6944084239233755e-03 
 1.7165795334037558e-03  1.7390407489109067e-03  1.7617958664437089e-03  1.7848487316711849e-03 
 1.8082032405824257e-03  1.8318633401450237e-03  1.8558330289721180e-03  1.8801163579981709e-03 
 1.9047174311635862e-03  1.9296404061082777e-03  1.9548894948743329e-03  1.9804689646178474e-03 
 2.0063831383300905e-03  2.0326363955680969e-03  2.0592331731948258e-03  2.0861779661289987e-03 
 2.1134753281047531e-03  2.1411298724412346e-03  2.1691462728222529e-03  2.1975292640861563e-03 
 2.2262836430260225e-03  2.2554142692003303e-03  2.2849260657542376e-03  2.3148240202516021e-03 
 2.3451131855178942e-03  2.3757986804941351e-03  2.4068856911020125e-03  2.4383794711203047e-03 
 2.4702853430727954e-03  2.5026086991277829e-03  2.5353550020093744e-03  2.5685297859206957e-03 
 2.6021386574791865e-03  2.6361872966641337e-03  2.6706814577765973e-03  2.7056269704119080e-03 
 2.7410297404448702e-03  2.7768957510278828e-03  2.8132310636021000e-03  2.8500418189218281e-03 
 2.8873342380923289e-03  2.9251146236212028e-03  2.9633893604835240e-03  3.0021649172009201e-03 
 3.0414478469347689e-03  3.0812447885936872e-03  3.1215624679555385e-03  3.1624076988040948e-03 
 3.2037873840805855e-03  3.2457085170503096e-03  3.2881781824845155e-03  3.3312035578577435e-03 
 3.3747919145608362e-03  3.4189506191298234e-03  3.4636871344908746e-03  3.5090090212215644e-03 
 3.5549239388286222e-03  3.6014396470424046e-03  3.6485640071283122e-03  3.6963049832153599e-03 
 3.7446706436421338e-03  3.7936691623203620e-03  3.8433088201163253e-03  3.8935980062503317e-03 
 3.9445452197145337e-03  3.9961590707092674e-03  4.0484482820981960e-03  4.1014216908824980e-03 
 4.1550882496943393e-03  4.2094570283098907e-03  4.2645372151821417e-03  4.3203381189937740e-03 
 4.3768691702303335e-03  4.4341399227740353e-03  4.4921600555183679e-03  4.5509393740038578e-03 
 4.6104878120752308e-03  4.6708154335602511e-03  4.7319324339705360e-03  4.7938491422246194e-03 
 4.8565760223935666e-03  4.9201236754694158e-03  4.9845028411567892e-03  5.0497243996879175e-03 
 5.1157993736614255e-03  5.1827389299051790e-03  5.2505543813635069e-03  5.3192571890091130e-03 
 5.3888589637800088e-03  5.4593714685417924e-03  5.5308066200755882e-03  5.6031764910920304e-03 
 5.6764933122715701e-03  5.7507694743314875e-03  5.8260175301199542e-03  5.9022501967374956e-03 
 5.9794803576862128e-03  6.0577210650471208e-03  6.1369855416859888e-03  6.2172871834880149e-03 
 6.2986395616217977e-03  6.3810564248328637e-03  6.4645517017672596e-03  6.5491395033255122e-03 
 6.6348341250474126e-03  6.7216500495279928e-03  6.8096019488651204e-03  6.8987046871391237e-03 
 6.9889733229248317e-03  7.0804231118365476e-03  7.1730695091062552e-03  7.2669281721956013e-03 
 7.3620149634420397e-03  7.4583459527396093e-03  7.5559374202547750e-03  7.6548058591778267e-03 
 7.7549679785102648e-03  7.8564407058886385e-03  7.9592411904453961e-03  8.0633868057071022e-03 
 8.1688951525306138e-03  8.2757840620776638e-03  8.3840715988283722e-03  8.4937760636341845e-03 
 8.6049159968107584e-03  8.7175101812713342e-03  8.8315776457010536e-03  8.9471376677729073e-03 
 9.0642097774056678e-03  9.1828137600645059e-03  9.3029696601047776e-03  9.4246977841595785e-03 
 9.5480187045715922e-03  9.6729532628698871e-03  9.7995225732921808e-03  9.9277480263531646e-03 
 1.0057651292459601e-02  1.0189254325572645e-02  1.0322579366918124e-02  1.0457648948745350e-02 
 1.0594485898135129e-02  1.0733113340857596e-02  1.0873554705280515e-02  1.1015833726328748e-02 
 1.1159974449495470e-02  1.1306001234905976e-02  1.1453938761434560e-02  1.1603812030875306e-02 
 1.1755646372167465e-02  1.1909467445676097e-02  1.2065301247528732e-02  1.2223174114008787e-02 
 1.2383112726006453e-02  1.2545144113527810e-02  1.2709295660263012e-02  1.2875595108214150e-02 
 1.3044070562383740e-02  1.3214750495524520e-02  1.3387663752951430e-02  1.3562839557416523e-02 
 1.3740307514047690e-02  1.3920097615352003e-02  1.4102240246284479e-02  1.4286766189383272e-02 
 1.4473706629971958e-02  1.4663093161429929e-02  1.4854957790531762e-02  1.5049332942856432e-02 
 1.5246251468267314e-02  1.5445746646463886e-02  1.5647852192606095e-02  1.5852602263012244e-02 
 1.6060031460931570e-02  1.6270174842392217e-02  1.6483067922125824e-02  1.6698746679569561e-02 
 1.6917247564946784e-02  1.7138607505427166e-02  1.7362863911367505e-02  1.7590054682634179e-02 
 1.7820218215008236e-02  1.8053393406674473e-02  1.8289619664795261e-02  1.8528936912170460e-02 
 1.8771385593984481e-02  1.9017006684641600e-02  1.9265841694690738e-02  1.9517932677840848e-02 
 1.9773322238068089e-02  2.0032053536815975e-02  2.0294170300289807e-02  2.0559716826846472e-02 
 2.0828737994480997e-02  2.1101279268410992e-02  2.1377386708760441e-02  2.1657106978343919e-02 
 2.1940487350552741e-02  2.2227575717344312e-02  2.2518420597335879e-02  2.2813071144004406e-02 
 2.3111577153993593e-02  2.3413989075529593e-02  2.3720358016946917e-02  2.4030735755325848e-02 
 2.4345174745242910e-02  2.4663728127635787e-02  2.4986449738784316e-02  2.5313394119408843e-02 
 2.5644616523887880e-02  2.5980172929596122e-02  2.6320120046364786e-02  2.6664515326065723e-02 
 2.7013416972320885e-02  2.7366883950338920e-02  2.7724975996880393e-02  2.8087753630353485e-02 
 2.8455278161041656e-02  2.8827611701465358e-02  2.9204817176879113e-02  2.9586958335906046e-02 
 2.9974099761311577e-02  3.0366306880918022e-02  3.0763645978662095e-02  3.1166184205797011e-02 
 3.1573989592241267e-02  3.1987131058075734e-02  3.2405678425191486e-02  3.2829702429089738e-02 
 3.3259274730836383e-02  3.3694467929172828e-02  3.4135355572785395e-02  3.4582012172735203e-02 
 3.5034513215050751e-02  3.5492935173485202e-02  3.5957355522440552e-02  3.6427852750061183e-02 
 3.6904506371498391e-02  3.7387396942348675e-02  3.7876606072267838e-02  3.8372216438763200e-02 
 3.8874311801166302e-02  3.9382977014788427e-02  3.9898298045261377e-02  4.0420361983065749e-02 
 4.0949257058249630e-02  4.1485072655339551e-02  4.2027899328446715e-02  4.2577828816570844e-02 
 4.3134954059104329e-02  4.3699369211539170e-02  4.4271169661379485e-02  4.4850452044262273e-02 
 4.5437314260288929e-02  4.6031855490570768e-02  4.6634176213990790e-02  4.7244378224184813e-02 
 4.7862564646744925e-02  4.8488839956647871e-02  4.9123309995911621e-02  4.9766081991482906e-02 
 5.0417264573358885e-02  5.1076967792945682e-02  5.1745303141657623e-02  5.2422383569759319e-02 
 5.3108323505454656e-02  5.3803238874225362e-02  5.4507247118422711e-02  5.5220467217115612e-02 
 5.5943019706198256e-02  5.6675026698761094e-02  5.7416611905728027e-02  5.8167900656764103e-02 
 5.8929019921456417e-02  5.9700098330772215e-02  6.0481266198797928e-02  6.1272655544762501e-02 
 6.2074400115348989e-02  6.2886635407298053e-02  6.3709498690307273e-02  6.4543129030229865e-02 
 6.5387667312577474e-02  6.6243256266329861e-02  6.7110040488056633e-02  6.7988166466354277e-02 
 6.8877782606603141e-02  6.9779039256048309e-02  7.0692088729208596e-02  7.1617085333618213e-02 
 7.2554185395904733e-02  7.3503547288209140e-02  7.4465331454950809e-02  7.5439700439943067e-02 
 7.6426818913863437e-02  7.7426853702083492e-02  7.8439973812862593e-02  7.9466350465910801e-02 
 8.0506157121325334e-02  8.1559569508905833e-02  8.2626765657852985e-02  8.3707925926856025e-02 
 8.4803233034573808e-02  8.5912872090514181e-02  8.7037030626318818e-02  8.8175898627455826e-02 
 8.9329668565328049e-02  9.0498535429801075e-02  9.1682696762156998e-02  9.2882352688479428e-02 
 9.4097705953475178e-02  9.5328961954738708e-02  9.6576328777464748e-02  9.7840017229615203e-02 
 9.9120240877546145e-02  1.0041721608210116e-01  1.0173116203517672e-01  1.0306230079676627e-01 
 1.0441085733248869e-01  1.0577705955160825e-01  1.0716113834555187e-01  1.0856332762692955e-01 
 1.0998386436906743e-01  1.1142298864605590e-01  1.1288094367332306e-01  1.1435797584873855e-01 
 1.1585433479425555e-01  1.1737027339809730e-01  1.1890604785749594e-01  1.2046191772199039e-01 
 1.2203814593729086e-01  1.2363499888971732e-01  1.2525274645121939e-01  1.2689166202498542e-01 
 1.2855202259164808e-01  1.3023410875609495e-01  1.3193820479489141e-01  1.3366459870432387e-01 
 1.3541358224907232e-01  1.3718545101151802e-01  1.3898050444169932e-01  1.4079904590791831e-01 
 1.4264138274801108e-01  1.4450782632128856e-01  1.4639869206115694e-01  1.4831429952842673e-01 
 1.5025497246531916e-01  1.5222103885017962e-01  1.5421283095290658e-01  1.5623068539110602e-01 
 1.5827494318698068e-01  1.6034594982496367e-01  1.6244405531010592e-01  1.6456961422722810e-01 
 1.6672298580084635e-01  1.6890453395588173e-01  1.7111462737916514e-01  1.7335363958174466e-01 
 1.7562194896201194e-01  1.7791993886965102e-01  1.8024799767042574e-01  1.8260651881181442e-01 
 1.8499590088950349e-01  1.8741654771475103e-01  1.8986886838263187e-01  1.9235327734117563e-01 
 1.9487019446140952e-01  1.9742004510831723e-01  2.0000326021272710e-01  2.0262027634414001e-01 
 2.0527153578451093e-01  2.0795748660299557e-01  2.1067858273167503e-01  2.1343528404227155e-01 
 2.1622805642386822e-01  2.1905737186164384e-01  2.2192370851664184e-01  2.2482755080657901e-01 
 2.2776938948771383e-01  2.3074972173778527e-01  2.3376905124003702e-01  2.3682788826834131e-01 
 2.3992674977343625e-01  2.4306615947029175e-01  2.4624664792661874e-01  2.4946875265253612e-01 
 2.5273301819141158e-01  2.5603999621189039e-01  2.5939024560112900e-01  2.6278433255924810e-01 
 2.6622283069502178e-01  2.6970632112281906e-01  2.7323539256081369e-01  2.7681064143047729e-01 
 2.8043267195737875e-01  2.8410209627329791e-01  2.8781953451967773e-01  2.9158561495242968e-01 
 2.9540097404811055e-01  2.9926625661148848e-01  3.0318211588451638e-01  3.0714921365673153e-01 
 3.1116822037709951e-01  3.1523981526732175e-01  3.1936468643662536e-01  3.2354353099805561e-01 
 3.2777705518628947e-01  3.3206597447699082e-01  3.3641101370772802e-01  3.4081290720047253e-01 
 3.4527239888570221e-01  3.4979024242812479e-01  3.5436720135405220e-01  3.5900404918043677e-01 
 3.6370156954559713e-01  3.6846055634165559e-01  3.7328181384870762e-01  3.7816615687074689e-01 
 3.8311441087336939e-01  3.8812741212327878e-01  3.9320600782961790e-01  3.9835105628714845e-01 
 4.0356342702130560e-01  4.0884400093514939e-01  4.1419367045823946e-01  4.1961333969745801e-01 
 4.2510392458980573e-01  4.3066635305719758e-01  4.3630156516328450e-01  4.4201051327232316e-01 
 4.4779416221013268e-01  4.5365348942714900e-01  4.5958948516361786e-01  4.6560315261694668e-01 
 4.7169550811124838e-01  4.7786758126910178e-01  4.8412041518556076e-01  4.9045506660443949e-01 
 4.9687260609690492e-01  5.0337411824240563e-01  5.0996070181196829e-01  5.1663346995389303e-01 
 5.2339355038187763e-01  5.3024208556560404e-01  5.3718023292381845e-01  5.4420916501993799e-01 
 5.5133006976021737e-01  5.5854415059450402e-01  5.6585262671963032e-01  5.7325673328545623e-01 
 5.8075772160361394e-01  5.8835685935898208e-01  5.9605543082392820e-01  6.0385473707535309e-01 
 6.1175609621457649e-01  6.1976084359009875e-01  6.2787033202327858e-01  6.3608593203696251e-01 
 6.4440903208710665e-01  6.5284103879742950e-01  6.6138337719713369e-01  6.7003749096174081e-01 
 6.7880484265707441e-01  6.8768691398643833e-01  6.9668520604102846e-01  7.0580123955361662e-01 
 7.1503655515556452e-01  7.2439271363718993e-01  7.3387129621154468e-01  7.4347390478164388e-01 
 7.5320216221119096e-01  7.6305771259884569e-01  7.7304222155608093e-01  7.8315737648867434e-01 
 7.9340488688188471e-01  8.0378648458935864e-01  8.1430392412581754e-01  8.2495898296357584e-01 
 8.3575346183293719e-01  8.4668918502652235e-01  8.5776800070757930e-01  8.6899178122232656e-01 
 8.8036242341638649e-01  8.9188184895535005e-01  9.0355200464955199e-01  9.1537486278308100e-01 
 9.2735242144710095e-01  9.3948670487753405e-01  9.5177976379716067e-01  9.6423367576219698e-01 
 9.7685054551340633e-01  9.8963250533180636e-01  1.0025817153990286e+00  1.0157003641623947e+00 
 1.0289906687047694e+00  1.0424548751192526e+00  1.0560952588887742e+00  1.0699141252706572e+00 
 1.0839138096862100e+00  1.0980966781154193e+00  1.1124651274968083e+00  1.1270215861325172e+00 
 1.1417685140987028e+00  1.1567084036612907e+00  1.1718437796971750e+00  1.1871772001209300e+00 
 1.2027112563171019e+00  1.2184485735781603e+00  1.2343918115481789e+00  1.2505436646723214e+00 
 1.2669068626522084e+00  1.2834841709072444e+00  1.3002783910419802e+00  1.3172923613195904e+00 
 1.3345289571415468e+00  1.3519910915335684e+00  1.3696817156379286e+00  1.3876038192122064e+00 
 1.4057604311345651e+00  1.4241546199156292e+00  1.4427894942170842e+00  1.4616682033770407e+00 
 1.4807939379422796e+00  1.5001699302074638e+00  1.5197994547614024e+00  1.5396858290404656e+00 
 1.5598324138892379e+00  1.5802426141285093e+00  1.6009198791306987e+00  1.6218677034028053e+00 
 1.6430896271769890e+00  1.6645892370088782e+00  1.6863701663837054e+00  1.7084360963303751e+00 
 1.7307907560435680e+00  1.7534379235139816e+00  1.7763814261668243e+00  1.7996251415086457e+00 
 1.8231729977826641e+00  1.8470289746326356e+00  1.8711971037754276e+00  1.8956814696823880e+00 
 1.9204862102696298e+00  1.9456155175973504e+00  1.9710736385782981e+00  1.9968648756955112e+00 
 2.0229935877294487e+00  2.0494641904946329e+00  2.0762811575859335e+00  2.1034490211346162e+00 
 2.1309723725742828e+00  2.1588558634168349e+00  2.1871042060385903e+00  2.2157221744766860e+00 
 2.2447146052359050e+00  2.2740863981060429e+00  2.3038425169900063e+00  2.3339879907427092e+00 
 2.3645279140209650e+00  2.3954674481444949e+00  2.4268118219682062e+00  2.4585663327658769e+00 
 2.4907363471254103e+00  2.5233273018558013e+00  2.5563447049059698e+00  2.5897941362956143e+00 
 2.6236812490582540e+00  2.6580117701965995e+00  2.6927915016504329e+00  2.7280263212771505e+00 
 2.7637221838451294e+00  2.7998851220401049e+00  2.8365212474847072e+00  2.8736367517713246e+00 
 2.9112379075085255e+00  2.9493310693811221e+00  2.9879226752241381e+00  3.0270192471108119e+00 
 3.0666273924548459e+00  3.1067538051270747e+00  3.1474052665867447e+00  3.1885886470275966e+00 
 3.2303109065389459e+00  3.2725790962819521e+00  3.3154003596812851e+00  3.3587819336323785e+00 
 3.4027311497244810e+00  3.4472554354797165e+00  3.4923623156083492e+00  3.5380594132804797e+00 
 3.5843544514143852e+00  3.6312552539816840e+00  3.6787697473296439e+00  3.7269059615207305e+00 
 3.7756720316897110e+00  3.8250761994185116e+00  3.8751268141290653e+00  3.9258323344943835e+00 
 3.9772013298680924e+00  4.0292424817326724e+00  4.0819645851666522e+00  4.1353765503309958e+00 
 4.1894874039749421e+00  4.2443062909615445e+00  4.2998424758131799e+00  4.3561053442772684e+00 
 4.4131044049124917e+00  4.4708492906957611e+00  4.5293497606502191e+00  4.5886157014945104e+00 
 4.6486571293137029e+00  4.7094841912520033e+00  4.7711071672276537e+00  4.8335364716702616e+00 
 4.8967826552808669e+00  4.9608564068150303e+00  5.0257685548892637e+00  5.0915300698110890e+00 
 5.1581520654330468e+00  5.2256458010309634e+00  5.2940226832067960e+00  5.3632942678163777e+00 
 5.4334722619223799e+00  5.5045685257728350e+00  5.5765950748055531e+00  5.6495640816787480e+00 
 5.7234878783282657e+00  5.7983789580516660e+00  5.8742499776196802e+00  5.9511137594151942e+00 
 6.0289832936002776e+00  6.1078717403115421e+00  6.1877924318842439e+00  6.2687588751054797e+00 
 6.3507847534968613e+00  6.4338839296270658e+00  6.5180704474546420e+00  6.6033585347014769e+00 
 6.6897626052573091e+00  6.7772972616157130e+00  6.8659772973419511e+00  6.9558176995731307e+00 
 7.0468336515510561e+00  7.1390405351882418e+00  7.2324539336674922e+00  7.3270896340754614e+00 
 7.4229636300707700e+00  7.5200921245869337e+00  7.6184915325706974e+00  7.7181784837562137e+00 
 7.8191698254754964e+00  7.9214826255056643e+00  8.0251341749534379e+00  8.1301419911773749e+00 
 8.2365238207483440e+00  8.3442976424487441e+00  8.4534816703109534e+00  8.5640943566955503e+00 
 8.6761543954097995e+00  8.7896807248669617e+00  8.9046925312869156e+00  9.0212092519386875e+00 
 9.1392505784254041e+00  9.2588364600121587e+00  9.3799871069975822e+00  9.5027229941293641e+00 
 9.6270648640645540e+00  9.7530337308751172e+00  9.8806508835993618e+00  1.0009937889839840e+01 
 1.0140916599408321e+01  1.0273609148018465e+01  1.0408037961026809e+01  1.0544225757222701e+01 
 1.0682195552667842e+01  1.0821970664586043e+01  1.0963574715303896e+01  1.1107031636243004e+01 
 1.1252365671964448e+01  1.1399601384266170e+01  1.1548763656334009e+01  1.1699877696946922e+01 
 1.1852969044737462e+01  1.2008063572507773e+01  1.2165187491602193e+01  1.2324367356337016e+01 
 1.2485630068488247e+01  1.2649002881838060e+01  1.2814513406780751e+01  1.2982189614988974e+01 
 1.3152059844140995e+01  1.3324152802709850e+01  1.3498497574815136e+01  1.3675123625138298e+01 
 1.3854060803902222e+01  1.4035339351916015e+01  1.4218989905685742e+01  1.4405043502592104e+01 
 1.4593531586135828e+01  1.4784486011251600e+01  1.4977939049691779e+01  1.5173923395480299e+01 
 1.5372472170438064e+01  1.5573618929780601e+01  1.5777397667788991e+01  1.5983842823554973e+01 
 1.6192989286801225e+01  1.6404872403777826e+01  1.6619527983235852e+01  1.6836992302479128e+01 
 1.7057302113495194e+01  1.7280494649166471e+01  1.7506607629562701e+01  1.7735679268315753e+01 
 1.7967748279077778e+01  1.8202853882063980e+01  1.8441035810680773e+01  1.8682334318241018e+01 
 1.8926790184766812e+01  1.9174444723881422e+01  1.9425339789791401e+01  1.9679517784360044e+01 
 1.9937021664273399e+01  2.0197894948300057e+01  2.0462181724645919e+01  2.0729926658405223e+01 
 2.1001174999109022e+01  2.1275972588372500e+01  2.1554365867642289e+01  2.1836401886045184e+01 
 2.2122128308339573e+01  2.2411593422970871e+01  2.2704846150232413e+01  2.3001936050533118e+01 
 2.3302913332773151e+01  2.3607828862829614e+01  2.3916734172152811e+01  2.4229681466475242e+01 
 2.4546723634634496e+01  2.4867914257511579e+01  2.5193307617086223e+01  2.5522958705610662e+01 
 2.5856923234903466e+01  2.6195257645764936e+01  2.6538019117515798e+01  2.6885265577660569e+01 
 2.7237055711677499e+01  2.7593448972936528e+01  2.7954505592747061e+01  2.8320286590537197e+01 
 2.8690853784166158e+01  2.9066269800371700e+01  2.9446598085353983e+01  2.9831902915498446e+01 
 3.0222249408238444e+01  3.0617703533060315e+01  3.1018332122652364e+01  3.1424202884199776e+01 
 3.1835384410827260e+01  3.2251946193191472e+01  3.2673958631225076e+01  3.3101493046034548e+01 
 3.3534621691953546e+01  3.3973417768754139e+01  3.4417955434017664e+01  3.4868309815667608e+01 
 3.5324557024666348e+01  3.5786774167878114e+01  3.6255039361100245e+01  3.6729431742264964e+01 
 3.7210031484813655e+01  3.7696919811246758e+01  3.8190179006850286e+01  3.8689892433602282e+01 
 3.9196144544261251e+01  3.9709020896638812e+01  4.0228608168059218e+01  4.0754994170008004e+01 
 4.1288267862972354e+01  4.1828519371475608e+01  4.2375839999308567e+01  4.2930322244960017e+01 
 4.3492059817249178e+01  4.4061147651162770e+01  4.4637681923899194e+01  4.5221760071122759e+01 
 4.5813480803430508e+01  4.6412944123034634e+01  4.7020251340662782e+01  4.7635505092680233e+01 
 4.8258809358435464e+01  4.8890269477832902e+01  4.9529992169135667e+01  5.0178085547001189e+01 
 5.0834659140752855e+01  5.1499823912890704e+01  5.2173692277844410e+01  5.2856378120971492e+01 
 5.3547996817804318e+01  5.4248665253548765e+01  5.4958501842838132e+01  5.5677626549745497e+01 
 5.6406160908057892e+01  5.7144228041815879e+01  5.7891952686121719e+01  5.8649461208220067e+01 
 5.9416881628853893e+01  6.0194343643900922e+01  6.0981978646292141e+01  6.1779919748217580e+01 
 6.2588301803622649e+01  6.3407261430998751e+01  6.4236937036472099e+01  6.5077468837194743e+01 
 6.5928998885041551e+01  6.6791671090617314e+01  6.7665631247578034e+01  6.8551027057270346e+01 
 6.9448008153693408e+01  7.0356726128787429e+01  7.1277334558053028e+01  7.2209989026505880e+01 