  <PP_INFO>

############################################################
#    Opium Parameter File                                  #
############################################################
#-----------------------------------------------------------
#Command line   : opium Li Li.log ae ps nl tc2 ke upf rpt 
 
#Opium version  : 4.1 
#Compile Host   : andes-login5.olcf.ornl.gov 
#Compile OS     : Linux 4.18.0-348.12.2.el8_5.x86_64 x86_64 
#Compile Date   : Thu Jun 30 15:38:05 EDT 2022 
#-----------------------------------------------------------
#Execution Host : andes-login5.olcf.ornl.gov 
#Execution Date : Thu Jun 30 16:15:50 2022
 
#-----------------------------------------------------------
############################################################
[Atom]
Li  
3
100   2.00  -
200   0.50  -
210   0.50  -

[Pseudo]
2  3.15332 2.52807 
g

[Gaussinfo]
1 2
1 3
2  1.330248  6.752868
1 15.000000  1.0
3 15.047997 15.000000
2  1.806054 -1.242730

[XC]
pbe

[KBDesign]
p

[Relativity]
nrl

[Configs]
2

200   1.00  -
210   0.00  -

200   0.00  -
210   1.00  -


############################################################
  </PP_INFO>



<PP_HEADER>
   0         Version Number
   Li        Element
   NC        Norm - Conserving pseudopotential
    F      Nonlinear Core Correction
SLA  PW   PBE  PBE     PBE  Exchange-Correlation functional
 1          Z valence
 0          Total energy
 0.000000   0.000000     Suggested cutoff for wfc and rho
 1           Max angular momentum component
 1104           Number of points in mesh
 2  1     Number of Wavefuncitons, Number of Projectors
 Wavefunctions         nl  l   occ
                       S  0  0.500000
                       P  1  0.500000
</PP_HEADER>
<PP_MESH>
  <PP_R>
 6.9336127435063426e-05  7.0243381465794050e-05  7.1162506795178435e-05  7.2093658757584861e-05 
 7.3036994719911187e-05  7.3992674108180306e-05  7.4960858434483424e-05  7.5941711324276049e-05 
 7.6935398544031118e-05  7.7942088029253815e-05  7.8961949912863299e-05  7.9995156553945001e-05 
 8.1041882566880525e-05  8.2102304850857375e-05  8.3176602619765467e-05  8.4264957432484644e-05 
 8.5367553223568665e-05  8.6484576334330487e-05  8.7616215544334493e-05  8.8762662103300546e-05 
 8.9924109763425794e-05  9.1100754812129119e-05  9.2292796105224322e-05  9.3500435100527069e-05 
 9.4723875891901917e-05  9.5963325243754471e-05  9.7218992625975207e-05  9.8491090249340529e-05 
 9.9779833101376129e-05  1.0108543898269152e-04  1.0240812854378811e-04  1.0374812532234985e-04 
 1.0510565578102164e-04  1.0648094934568207e-04  1.0787423844421685e-04  1.0928575854579984e-04 
 1.1071574820068777e-04  1.1216444908053578e-04  1.1363210601924065e-04  1.1511896705431818e-04 
 1.1662528346882216e-04  1.1815130983381193e-04  1.1969730405137506e-04  1.2126352739821404e-04 
 1.2285024456980224e-04  1.2445772372511821e-04  1.2608623653196513e-04  1.2773605821288342e-04 
 1.2940746759166385e-04  1.3110074714046968e-04  1.3281618302757458e-04  1.3455406516572652e-04 
 1.3631468726114316e-04  1.3809834686314906e-04  1.3990534541446226e-04  1.4173598830213879e-04 
 1.4359058490918372e-04  1.4546944866683777e-04  1.4737289710754791e-04  1.4930125191863110e-04 
 1.5125483899663982e-04  1.5323398850244013e-04  1.5523903491700906e-04  1.5727031709796289e-04 
 1.5932817833682486e-04  1.6141296641704222e-04  1.6352503367276250e-04  1.6566473704837908e-04 
 1.6783243815885474e-04  1.7002850335083673e-04  1.7225330376456928e-04  1.7450721539661758e-04 
 1.7679061916341194e-04  1.7910390096562370e-04  1.8144745175338326e-04  1.8382166759235163e-04 
 1.8622694973065648e-04  1.8866370466670394e-04  1.9113234421787813e-04  1.9363328559013839e-04 
 1.9616695144852942e-04  1.9873376998861151e-04  2.0133417500882729e-04  2.0396860598381438e-04 
 2.0663750813867778e-04  2.0934133252423399e-04  2.1208053609323929e-04  2.1485558177761652e-04 
 2.1766693856669123e-04  2.2051508158645210e-04  2.2340049217984829e-04  2.2632365798813767e-04 
 2.2928507303329924e-04  2.3228523780152409e-04  2.3532465932779874e-04  2.3840385128159525e-04 
 2.4152333405368280e-04  2.4468363484407405e-04  2.4788528775112473e-04  2.5112883386179627e-04 
 2.5441482134310145e-04  2.5774380553474546e-04  2.6111634904298000e-04  2.6453302183568523e-04 
 2.6799440133869467e-04  2.7150107253338289e-04  2.7505362805552814e-04  2.7865266829546893e-04 
 2.8229880149957201e-04  2.8599264387302699e-04  2.8973481968398669e-04  2.9352596136906979e-04 
 2.9736670964024454e-04  3.0125771359310998e-04  3.0519963081659544e-04  3.0919312750409331e-04 
 3.1323887856604893e-04  3.1733756774402101e-04  3.2148988772623589e-04  3.2569654026465365e-04 
 3.2995823629356527e-04  3.3427569604974343e-04  3.3864964919416224e-04  3.4308083493531371e-04 
 3.4757000215413484e-04  3.5211790953057015e-04  3.5672532567179098e-04  3.6139302924209101e-04 
 3.6612180909448337e-04  3.7091246440401805e-04  3.7576580480284450e-04  3.8068265051704168e-04 
 3.8566383250523799e-04  3.9071019259904468e-04  3.9582258364532862e-04  4.0100186965034463e-04 
 4.0624892592575486e-04  4.1156463923655828e-04  4.1694990795095634e-04  4.2240564219217953e-04 
 4.2793276399229917e-04  4.3353220744805492e-04  4.3920491887871786e-04  4.4495185698602166e-04 
 4.5077399301618443e-04  4.5667231092405271e-04  4.6264780753939137e-04  4.6870149273535081e-04 
 4.7483438959913739e-04  4.8104753460491797e-04  4.8734197778898695e-04  4.9371878292722292e-04 
 5.0017902771487197e-04  5.0672380394867927e-04  5.1335421771140559e-04  5.2007138955875839e-04 
 5.2687645470876631e-04  5.3377056323363696e-04  5.4075488025411976e-04  5.4783058613641427e-04 
 5.5499887669165570e-04  5.6226096337800907e-04  5.6961807350540872e-04  5.7707145044297704e-04 
 5.8462235382915600e-04  5.9227205978458985e-04  6.0002186112779207e-04  6.0787306759363510e-04 
 6.1582700605469797e-04  6.2388502074551264e-04  6.3204847348973935e-04  6.4031874393032236e-04 
 6.4869722976265015e-04  6.5718534697077060e-04  6.6578453006669322e-04  6.7449623233282877e-04 
 6.8332192606759476e-04  6.9226310283423845e-04  7.0132127371291429e-04  7.1049796955606015e-04 
 7.1979474124711496e-04  7.2921315996262153e-04  7.3875481743775962e-04  7.4842132623535263e-04 
 7.5821432001839460e-04  7.6813545382614309e-04  7.7818640435382488e-04  7.8836887023600209e-04 
 7.9868457233364274e-04  8.0913525402495428e-04  8.1972268150001630e-04  8.3044864405927175e-04 
 8.4131495441592055e-04  8.5232344900227665e-04  8.6347598828012640e-04  8.7477445705515201e-04 
 8.8622076479546758e-04  8.9781684595432489e-04  9.0956466029703923e-04  9.2146619323219589e-04 
 9.3352345614718731e-04  9.4573848674814375e-04  9.5811334940430976e-04  9.7065013549692757e-04 
 9.8335096377268560e-04  9.9621798070179232e-04  1.0092533608407322e-03  1.0224593071997748e-03 
 1.0358380516152859e-03  1.0493918551269159e-03  1.0631230083597157e-03  1.0770338319112636e-03 
 1.0911266767438495e-03  1.1054039245817920e-03  1.1198679883139570e-03  1.1345213124015414e-03 
 1.1493663732911922e-03  1.1644056798335320e-03  1.1796417737071623e-03  1.1950772298482102e-03 
 1.2107146568855023e-03  1.2265566975814257e-03  1.2426060292785640e-03  1.2588653643521742e-03 
 1.2753374506685800e-03  1.2920250720495755e-03  1.3089310487428920e-03  1.3260582378988297e-03 
 1.3434095340531180e-03  1.3609878696161058e-03  1.3787962153683417e-03  1.3968375809626432e-03 
 1.4151150154327358e-03  1.4336316077085476e-03  1.4523904871382436e-03  1.4713948240170959e-03 
 1.4906478301232693e-03  1.5101527592606195e-03  1.5299129078085944e-03  1.5499316152793295e-03 
 1.5702122648820341e-03  1.5907582840947625e-03  1.6115731452436598e-03  1.6326603660898034e-03 
 1.6540235104237058e-03  1.6756661886676071e-03  1.6975920584856397e-03  1.7198048254019893e-03 
 1.7423082434271341e-03  1.7651061156922800e-03  1.7882022950921012e-03  1.8116006849358875e-03 
 1.8353052396072129e-03  1.8593199652322358e-03  1.8836489203567445e-03  1.9082962166320598e-03 
 1.9332660195099159e-03  1.9585625489464292e-03  1.9841900801152827e-03  2.0101529441302417e-03 
 2.0364555287771158e-03  2.0631022792553144e-03  2.0900976989290895e-03  2.1174463500886211e-03 
 2.1451528547210422e-03  2.1732218952915830e-03  2.2016582155349059e-03  2.2304666212568142e-03 
 2.2596519811464411e-03  2.2892192275990723e-03  2.3191733575497306e-03  2.3495194333176717e-03 
 2.3802625834619270e-03  2.4114080036480427e-03  2.4429609575261596e-03  2.4749267776205813e-03 
 2.5073108662309863e-03  2.5401186963454289e-03  2.5733558125652801e-03  2.6070278320422906e-03 
 2.6411404454278944e-03  2.6756994178349478e-03  2.7107105898120363e-03  2.7461798783305568e-03 
 2.7821132777846886e-03  2.8185168610044644e-03  2.8553967802820938e-03  2.8927592684117108e-03 
 2.9306106397427364e-03  2.9689572912470152e-03  3.0078057035999202e-03  3.0471624422756024e-03 
 3.0870341586565707e-03  3.1274275911577915e-03  3.1683495663654983e-03  3.2098070001909018e-03 
 3.2518068990389868e-03  3.2943563609926243e-03  3.3374625770121557e-03  3.3811328321506889e-03 
 3.4253745067852766e-03  3.4701950778642330e-03  3.5156021201707493e-03  3.5616033076030468e-03 
 3.6082064144712898e-03  3.6554193168114590e-03  3.7032499937164204e-03  3.7517065286844140e-03 
 3.8007971109851788e-03  3.8505300370439651e-03  3.9009137118436502e-03  3.9519566503451843e-03 
 4.0036674789266664e-03  4.0560549368412026e-03  4.1091278776938687e-03  4.1628952709379862e-03 
 4.2173662033909865e-03  4.2725498807700988e-03  4.3284556292481442e-03  4.3850928970296790e-03 
 4.4424712559477534e-03  4.5006004030815937e-03  4.5594901623954194e-03  4.6191504863987180e-03 
 4.6795914578282426e-03  4.7408232913520205e-03  4.8028563352956553e-03  4.8657010733912176e-03 
 4.9293681265490264e-03  4.9938682546525909e-03  5.0592123583770810e-03  5.1254114810315521e-03 
 5.1924768104252925e-03  5.2604196807585915e-03  5.3292515745382470e-03  5.3989841245181336e-03 
 5.4696291156651686e-03  5.5411984871510016e-03  5.6137043343697469e-03  5.6871589109821598e-03 
 5.7615746309865185e-03  5.8369640708166174e-03  5.9133399714672236e-03  5.9907152406473299e-03 
 6.0691029549615862e-03  6.1485163621202840e-03  6.2289688831782498e-03  6.3104741148030143e-03 
 6.3930458315727204e-03  6.4766979883040298e-03  6.5614447224105303e-03  6.6473003562919908e-03 
 6.7342793997548838e-03  6.8223965524645712e-03  6.9116667064295879e-03  7.0021049485184334e-03 
 7.0937265630092597e-03  7.1865470341729914e-03  7.2805820488901739e-03  7.3758474993021080e-03 
 7.4723594854966555e-03  7.5701343182291896e-03  7.6691885216791577e-03  7.7695388362426995e-03 
 7.8712022213618272e-03  7.9741958583905825e-03  8.0785371534987608e-03  8.1842437406135816e-03 
 8.2913334843998585e-03  8.3998244832791738e-03  8.5097350724885577e-03  8.6210838271791861e-03 
 8.7338895655556213e-03  8.8481713520561448e-03  8.9639485005746609e-03  9.0812405777248393e-03 
 9.2000674061468845e-03  9.3204490678576203e-03  9.4424059076443929e-03  9.5659585365033967e-03 
 9.6911278351229767e-03  9.8179349574125160e-03  9.9464013340774989e-03  1.0076548676241331e-02 
 1.0208398979114608e-02  1.0341974525712333e-02  1.0477297890619804e-02  1.0614391943807771e-02 
 1.0753279854497521e-02  1.0893985095076527e-02  1.1036531445065341e-02  1.1180942995136394e-02 
 1.1327244151185340e-02  1.1475459638455773e-02  1.1625614505717807e-02  1.1777734129501399e-02 
 1.1931844218385021e-02  1.2087970817340492e-02  1.2246140312134635e-02  1.2406379433788528e-02 
 1.2568715263095125e-02  1.2733175235195932e-02  1.2899787144217675e-02  1.3068579147969535e-02 
 1.3239579772701883e-02  1.3412817917927297e-02  1.3588322861304647e-02  1.3766124263587079e-02 
 1.3946252173634766e-02  1.4128737033493238e-02  1.4313609683538118e-02  1.4500901367687294e-02 
 1.4690643738681154e-02  1.4882868863432007e-02  1.5077609228443449e-02  1.5274897745300664e-02 
 1.5474767756232568e-02  1.5677253039746722e-02  1.5882387816337985e-02  1.6090206754271814e-02 
 1.6300744975443367e-02  1.6514038061313116e-02  1.6730122058920237e-02  1.6949033486974623e-02 
 1.7170809342028647e-02  1.7395487104729664e-02  1.7623104746154319e-02  1.7853700734225788e-02 
 1.8087314040214856e-02  1.8323984145326280e-02  1.8563751047371121e-02  1.8806655267526486e-02 
 1.9052737857183723e-02  1.9302040404886187e-02  1.9554605043357796e-02  1.9810474456623588e-02 
 2.0069691887223410e-02  2.0332301143519964e-02  2.0598346607102618e-02  2.0867873240287927e-02 
 2.1140926593718402e-02  2.1417552814060669e-02  2.1697798651804361e-02  2.1981711469163060e-02 
 2.2269339248078654e-02  2.2560730598330372e-02  2.2855934765749913e-02  2.3155001640544199e-02 
 2.3457981765726877e-02  2.3764926345660239e-02  2.4075887254708831e-02  2.4390917046006415e-02 
 2.4710068960337516e-02  2.5033396935135264e-02  2.5360955613596983e-02  2.5692800353918906e-02 
 2.6028987238651990e-02  2.6369573084179910e-02  2.6714615450321198e-02  2.7064172650056954e-02 
 2.7418303759385924e-02  2.7777068627308443e-02  2.8140527885941086e-02  2.8508742960763656e-02 
 2.8881776081000139e-02  2.9259690290135736e-02  2.9642549456571254e-02  3.0030418284417066e-02 
 3.0423362324428247e-02  3.0821447985082805e-02  3.1224742543804865e-02  3.1633314158334744e-02 
 3.2047231878247755e-02  3.2466565656623668e-02  3.2891386361869120e-02  3.3321765789694410e-02 
 3.3757776675247188e-02  3.4199492705404851e-02  3.4646988531227829e-02  3.5100339780575772e-02 
 3.5559623070888835e-02  3.6024916022136255e-02  3.6496297269934162e-02  3.6973846478835413e-02 
 3.7457644355792921e-02  3.7947772663799374e-02  3.8444314235705372e-02  3.8947352988218401e-02 
 3.9456973936084903e-02  3.9973263206458012e-02  4.0496308053453285e-02  4.1026196872894695e-02 
 4.1563019217253930e-02  4.2106865810784898e-02  4.2657828564856289e-02  4.3216000593484911e-02 
 4.3781476229072087e-02  4.4354351038346139e-02  4.4934721838513297e-02  4.5522686713620204e-02 
 4.6118345031130069e-02  4.6721797458716317e-02  4.7333145981275478e-02  4.7952493918162947e-02 
 4.8579945940654158e-02  4.9215608089634315e-02  4.9859587793519532e-02  5.0511993886412483e-02 
 5.1172936626495719e-02  5.1842527714665333e-02  5.2520880313408957e-02  5.3208109065930320e-02 
 5.3904330115524264e-02  5.4609661125205267e-02  5.5324221297592700e-02  5.6048131395056426e-02 
 5.6781513760125885e-02  5.7524492336166355e-02  5.8277192688325451e-02  5.9039742024754212e-02 
 5.9812269218105472e-02  6.0594904827313577e-02  6.1387781119659222e-02  6.2191032093122954e-02 
 6.3004793499031098e-02  6.3829202864998075e-02  6.4664399518168977e-02  6.5510524608765927e-02 
 6.6367721133943139e-02  6.7236133961953576e-02  6.8115909856632087e-02  6.9007197502198830e-02 
 6.9910147528387243e-02  7.0824912535900883e-02  7.1751647122203221e-02  7.2690507907645141e-02 
 7.3641653561933820e-02  7.4605244830948741e-02  7.5581444563907793e-02  7.6570417740889282e-02 
 7.7572331500713979e-02  7.8587355169191964e-02  7.9615660287739046e-02  8.0657420642367736e-02 
 8.1712812293057505e-02  8.2782013603509133e-02  8.3865205271288976e-02  8.4962570358366948e-02 
 8.6074294322054615e-02  8.7200565046347878e-02  8.8341572873679733e-02  8.9497510637088731e-02 
 9.0668573692808133e-02  9.1854959953281690e-02  9.3056869920610963e-02  9.4274506720441145e-02 
 9.5508076136289546e-02  9.6757786644323454e-02  9.8023849448593117e-02  9.9306478516725860e-02 
 1.0060589061608695e-01  1.0192230535041391e-01  1.0325594519693011e-01  1.0460703554394367e-01 
 1.0597580472893899e-01  1.0736248407716618e-01  1.0876730794073552e-01  1.1019051373822354e-01 
 1.1163234199479742e-01  1.1309303638286418e-01  1.1457284376325204e-01  1.1607201422693041e-01 
 1.1759080113727566e-01  1.1912946117289060e-01  1.2068825437098341e-01  1.2226744417131462e-01 
 1.2386729746071912e-01  1.2548808461821065e-01  1.2713007956067643e-01  1.2879355978916984e-01 
 1.3047880643580889e-01  1.3218610431128766e-01  1.3391574195301073e-01  1.3566801167385631e-01 
 1.3744320961157772e-01  1.3924163577885165e-01  1.4106359411398078e-01  1.4290939253226015e-01 
 1.4477934297801567e-01  1.4667376147732344e-01  1.4859296819141848e-01  1.5053728747080353e-01 
 1.5250704791006445e-01  1.5450258240340367e-01  1.5652422820090017e-01  1.5857232696550544e-01 
 1.6064722483078533e-01  1.6274927245941759e-01  1.6487882510245463e-01  1.6703624265936143e-01 
 1.6922188973884003e-01  1.7143613572044902e-01  1.7367935481702931e-01  1.7595192613794733e-01 
 1.7825423375316529e-01  1.8058666675814986e-01  1.8294961933963030e-01  1.8534349084221710e-01 
 1.8776868583589149e-01  1.9022561418437978e-01  1.9271469111442061e-01  1.9523633728593937e-01 
 1.9779097886314082e-01  2.0037904758653183e-01  2.0300098084588647e-01  2.0565722175416604e-01 
 2.0834821922240612e-01  2.1107442803558374e-01  2.1383630892947691e-01  2.1663432866853027e-01 
 2.1946896012473968e-01  2.2234068235756710e-01  2.2524998069490532e-01  2.2819734681509771e-01 
 2.3118327883003356e-01  2.3420828136933033e-01  2.3727286566561687e-01  2.4037754964093325e-01 
 2.4352285799426077e-01  2.4670932229019729e-01  2.4993748104879290e-01  2.5320787983656118e-01 
 2.5652107135868102e-01  2.5987761555240546e-01  2.6327807968169215e-01  2.6672303843307232e-01 
 2.7021307401277433e-01  2.7374877624511779e-01  2.7733074267219565e-01  2.8095957865485871e-01 
 2.8463589747502532e-01  2.8836032043932630e-01  2.9213347698410691e-01  2.9595600478180378e-01 
 2.9982854984871271e-01  3.0375176665416698e-01  3.0772631823114444e-01  3.1175287628832132e-01 
 3.1583212132359301e-01  3.1996474273907932e-01  3.2415143895763560e-01  3.2839291754088751e-01 
 3.3268989530881071e-01  3.3704309846087527e-01  3.4145326269877491e-01  3.4592113335076241e-01 
 3.5044746549761258e-01  3.5503302410023013e-01  3.5967858412893355e-01  3.6438493069442451e-01 
 3.6915285918047430e-01  3.7398317537834508e-01  3.7887669562297094e-01  3.8383424693092022e-01 
 3.8885666714016348e-01  3.9394480505167001e-01  3.9909952057285691e-01  4.0432168486291614e-01 
 4.0961218048004194e-01  4.1497190153058544e-01  4.2040175382016093e-01  4.2590265500672880e-01 
 4.3147553475568240e-01  4.3712133489696314e-01  4.4284100958423339e-01  4.4863552545612700e-01 
 4.5450586179961866e-01  4.6045301071552242e-01  4.6647797728615975e-01  4.7258177974522114e-01 
 4.7876544964984991e-01  4.8503003205497747e-01  4.9137658568994080e-01  4.9780618313740949e-01 
 5.0431991101465534e-01  5.1091887015719284e-01  5.1760417580482321e-01  5.2437695779011262e-01 
 5.3123836072933639e-01  5.3818954421592224e-01  5.4523168301642355e-01  5.5236596726905896e-01 
 5.5959360268484826e-01  5.6691581075137720e-01  5.7433382893923757e-01  5.8184891091115876e-01 
 5.8946232673388066e-01  5.9717536309279784e-01  6.0498932350941292e-01  6.1290552856163416e-01 
 6.2092531610695689e-01  6.2905004150856392e-01  6.3728107786438581e-01  6.4561981623915743e-01 
 6.5406766589951115e-01  6.6262605455214618e-01  6.7129642858511451e-01  6.8008025331226429e-01 
 6.8897901322088062e-01  6.9799421222256797e-01  7.0712737390741598e-01  7.1638004180148462e-01 
 7.2575377962767151e-01  7.3525017156997974e-01  7.4487082254124981e-01  7.5461735845439382e-01 
 7.6449142649717905e-01  7.7449469541060589e-01  7.8462885577092945e-01  7.9489562027537086e-01 
 8.0529672403156705e-01  8.1583392485080897e-01  8.2650900354511425e-01  8.3732376422818999e-01 
 8.4828003462033186e-01  8.5937966635731311e-01  8.7062453530331563e-01  8.8201654186795497e-01 
 8.9355761132745615e-01  9.0524969415002365e-01  9.1709476632548448e-01  9.2909482969922852e-01 
 9.4125191231052729e-01  9.5356806873527722e-01  9.6604538043322752e-01  9.7868595609975262e-01 
 9.9149193202222585e-01  1.0044654724410573e+00  1.0176087699154566e+00  1.0309240456939788e+00 
 1.0444135500899223e+00  1.0580795628616362e+00  1.0719243935978053e+00  1.0859503821077765e+00 
 1.1001598988169907e+00  1.1145553451675920e+00  1.1291391540242781e+00  1.1439137900854528e+00 
 1.1588817502997775e+00  1.1740455642881533e+00  1.1894077947712360e+00  1.2049710380025407e+00 
 1.2207379242072154e+00  1.2367111180265555e+00  1.2528933189683340e+00  1.2692872618630255e+00 
 1.2858957173259986e+00  1.3027214922257557e+00  1.3197674301583022e+00  1.3370364119277198e+00 
 1.3545313560330292e+00  1.3722552191614235e+00  1.3902109966879566e+00  1.4084017231817663e+00 
 1.4268304729189287e+00  1.4455003604020067e+00  1.4644145408864231e+00  1.4835762109136974e+00 
 1.5029886088516713e+00  1.5226550154417993e+00  1.5425787543536034e+00  1.5627631927463799e+00 
 1.5832117418382579e+00  1.6039278574827038e+00  1.6249150407525674e+00  1.6461768385317737e+00 
 1.6677168441147519e+00  1.6895386978137126e+00  1.7116460875738697e+00  1.7340427495967097e+00 
 1.7567324689714212e+00  1.7797190803145824e+00  1.8030064684182232e+00  1.8265985689063535e+00 
 1.8504993689001099e+00  1.8747129076915783e+00  1.8992432774264447e+00  1.9240946237955787e+00 
 1.9492711467356656e+00  1.9747771011390045e+00  2.0006167975725968e+00  2.0267946030066399e+00 
 2.0533149415525589e+00  2.0801822952106881e+00  2.1074012046277431e+00  2.1349762698641990e+00 
 2.1629121511717120e+00  2.1912135697807131e+00  2.2198853086983075e+00  2.2489322135166137e+00 
 2.2783591932316845e+00  2.3081712210731227e+00  2.3383733353445928e+00  2.3689706402752910e+00 
 2.3999683068825752e+00  2.4313715738458792e+00  2.4631857483920627e+00  2.4954162071923451e+00 
 2.5280683972709745e+00  2.5611478369257905e+00  2.5946601166608261e+00  2.6286109001311195e+00 
 2.6630059250998834e+00  2.6978510044082014e+00  2.7331520269574106e+00  2.7689149587043413e+00 
 2.8051458436695786e+00  2.8418508049589146e+00  2.8790360457981738e+00  2.9167078505815525e+00 
 2.9548725859337259e+00  2.9935367017858048e+00  3.0327067324653920e+00  3.0723892978009015e+00 
 3.1125911042403231e+00  3.1533189459846294e+00  3.1945797061360111e+00  3.2363803578611385e+00 
 3.2787279655696433e+00  3.3216296861080186e+00  3.3650927699691464e+00  3.4091245625176447e+00 
 3.4537325052312551e+00  3.4989241369584669e+00  3.5447070951926030e+00  3.5910891173625727e+00 
 3.6380780421405219e+00  3.6856818107665643e+00  3.7339084683909061e+00  3.7827661654334688e+00 
 3.8322631589613394e+00  3.8824078140842313e+00  3.9332086053682094e+00  3.9846741182679124e+00 
 4.0368130505775115e+00  4.0896342139006645e+00  4.1431465351396914e+00  4.1973590580042472e+00 
 4.2522809445397263e+00  4.3079214766756717e+00  4.3642900577944461e+00  4.4213962143204197e+00 
 4.4792495973299635e+00  4.5378599841825045e+00  4.5972372801729264e+00  4.6573915202055582e+00 
 4.7183328704901477e+00  4.7800716302599380e+00  4.8426182335122752e+00  4.9059832507719765e+00 
 4.9701773908777733e+00  5.0352115027921309e+00  5.1010965774347499e+00  5.1678437495400598e+00 
 5.2354642995390099e+00  5.3039696554654929e+00  5.3733713948877115e+00  5.4436812468648093e+00 
 5.5149110939291157e+00  5.5870729740943181e+00  5.6601790828899157e+00  5.7342417754222952e+00 
 5.8092735684627828e+00  5.8852871425629631e+00  5.9622953441977886e+00  6.0403111879366236e+00 
 6.1193478586427448e+00  6.1994187137016175e+00  6.2805372852783208e+00  6.3627172826045237e+00 
 6.4459725942953687e+00  6.5303172906966873e+00  6.6157656262629212e+00  6.7023320419661552e+00 
 6.7900311677366814e+00  6.8788778249354854e+00  6.9688870288590969e+00  7.0600739912772132e+00 
 7.1524541230035128e+00  7.2460430365001329e+00  7.3408565485162178e+00  7.4369106827609386e+00 
 7.5342216726116122e+00  7.6328059638571339e+00  7.7326802174773652e+00  7.8338613124588754e+00 
 7.9363663486475389e+00  8.0402126496384447e+00  8.1454177657036215e+00  8.2519994767580869e+00 
 8.3599757953646794e+00  8.4693649697782405e+00  8.5801854870296026e+00  8.6924560760499432e+00 
 8.8061957108360236e+00  8.9214236136568328e+00  9.0381592583021995e+00  9.1564223733739158e+00 
 9.2762329456199168e+00  9.3976112233120439e+00  9.5205777196681343e+00  9.6451532163187466e+00 
 9.7713587668193131e+00  9.8992157002082504e+00  1.0028745624611615e+01  1.0159970430894925e+01 
 1.0292912296362767e+01  1.0427593688506819e+01  1.0564037368802914e+01  1.0702266396557766e+01 
 1.0842304132806065e+01  1.0984174244258545e+01  1.1127900707301698e+01  1.1273507812049866e+01 
 1.1421020166450310e+01  1.1570462700442016e+01  1.1721860670168939e+01  1.1875239662248262e+01 
 1.2030625598094723e+01  1.2188044738301317e+01  1.2347523687077407e+01  1.2509089396744917e+01 
 1.2672769172293316e+01  1.2838590675994253e+01  1.3006581932076520e+01  1.3176771331462229e+01 
 1.3349187636564947e+01  1.3523859986150603e+01  1.3700817900262011e+01  1.3880091285207838e+01 
 1.4061710438616826e+01  1.4245706054558168e+01  1.4432109228728891e+01  1.4620951463709083e+01 
 1.4812264674285951e+01  1.5006081192847368e+01  1.5202433774846300e+01  1.5401355604336445e+01 
 1.5602880299580439e+01  1.5807041918731429e+01  1.6013874965588972e+01  1.6223414395430268e+01 
 1.6435695620917691e+01  1.6650754518083591e+01  1.6868627432393456e+01  1.7089351184888361e+01 
 1.7312963078407822e+01  1.7539500903894062e+01  1.7769002946778766e+01  1.8001507993453423e+01 
 1.8237055337824302e+01  1.8475684787953231e+01  1.8717436672785272e+01  1.8962351848964296e+01 
 1.9210471707738023e+01  1.9461838181953141e+01  1.9716493753142064e+01  1.9974481458702432e+01 
 2.0235844899170520e+01  2.0500628245589834e+01  2.0768876246976131e+01  2.1040634237880102e+01 
 2.1315948146049021e+01  2.1594864500188638e+01  2.1877430437826661e+01  2.2163693713279070e+01 
 2.2453702705720758e+01  2.2747506427361703e+01  2.3045154531730134e+01  2.3346697322064127e+01 
 2.3652185759812983e+01  2.3961671473249705e+01  2.4275206766196494e+01  2.4592844626864117e+01 
 2.4914638736807024e+01  2.5240643479995708e+01  2.5570913952007682e+01  2.5905505969338790e+01 
 2.6244476078836332e+01  2.6587881567255589e+01  2.6935780470941438e+01  2.7288231585636641e+01 
 2.7645294476418446e+01  2.8007029487765248e+01  2.8373497753754915e+01  2.8744761208396639e+01 
 2.9120882596097896e+01  2.9501925482268405e+01  2.9887954264062913e+01  3.0279034181264219e+01 
 3.0675231327309181e+01  3.1076612660458483e+01  3.1483246015112744e+01  3.1895200113276733e+01 
 3.2312544576173529e+01  3.2735349936010671e+01  3.3163687647900311e+01  3.3597630101935216e+01 
 3.4037250635422971e+01  3.4482623545280056e+01  3.4933824100588275e+01  3.5390928555315377e+01 
 3.5854014161202151e+01  3.6323159180818202e+01  3.6798442900788437e+01  3.7279945645192761e+01 
 3.7767748789141066e+01  3.8261934772525571e+01  3.8762587113953728e+01  3.9269790424862855e+01 
 3.9783630423819687e+01  4.0304193951007029e+01  4.0831568982899974e+01  4.1365844647134118e+01 
 4.1907111237568337e+01  4.2455460229544677e+01  4.3010984295347924e+01  4.3573777319867382e+01 
 4.4143934416463701e+01  4.4721551943043238e+01  4.5306727518342768e+01  4.5899560038427296e+01 
 4.6500149693403706e+01  4.7108597984353246e+01  4.7725007740485076e+01  4.8349483136515182e+01 
 4.8982129710271806e+01  4.9623054380531677e+01  5.0272365465089528e+01  5.0930172699064066e+01 
 5.1596587253443488e+01  5.2271721753873614e+01  5.2955690299691895e+01  5.3648608483210495e+01 
 5.4350593409251623e+01  5.5061763714938600e+01  5.5782239589745721e+01  5.6512142795810632e+01 
 5.7251596688512400e+01  5.8000726237318872e+01  5.8759658046906786e+01  5.9528520378558397e+01 
 6.0307443171837527e+01  6.1096558066550244e+01  6.1895998424991923e+01  6.2705899354485894e+01 
 6.3526397730216878e+01  6.4357632218363236e+01  6.5199743299531903e+01  6.6052873292499882e+01 
 6.6917166378266515e+01  6.7792768624420404e+01  6.8679828009825172e+01  6.9578494449628224e+01 
 7.0488919820596820e+01  7.1411257986785543e+01  7.2345664825539743e+01  7.3292298253839135e+01 
 7.4251318254986188e+01  7.5222886905643790e+01  7.6207168403226049e+01  7.7204329093648894e+01 
 7.8214537499442329e+01  7.9237964348231358e+01  8.0274782601589237e+01  8.1325167484268533e+01 
 8.2389296513814443e+01  8.3467349530565699e+01  8.4559508728047959e+01  8.5665958683765098e+01 
 8.6786886390393036e+01  8.7922481287382141e+01  8.9072935292972829e+01  9.0238442836630256e+01 
 9.1419200891903259e+01  9.2615409009713559e+01  9.3827269352080123e+01  9.5054986726285335e+01 
 9.6298768619487191e+01  9.7558825233786123e+01  9.8835369521749001e+01  1.0012861722239880e+02 
 1.0143878689767497e+02  1.0276609996937100e+02  1.0411078075655509e+02  1.0547305651348078e+02 
 1.0685315746799331e+02  1.0825131686043881e+02  1.0966777098308232e+02  1.1110275922004185e+02 
 1.1255652408774490e+02  1.1402931127591421e+02  1.1552136968908992e+02  1.1703295148869513e+02 
  </PP_R>
  <PP_RAB>
 9.0136965665582447e-07  9.1316395905532260e-07  9.2511258833731962e-07  9.3721756384860311e-07 
 9.4948093135884534e-07  9.6190476340634402e-07  9.7449115964828446e-07  9.8724224721558862e-07 
 1.0001601810724044e-06  1.0132471443802996e-06  1.0265053488672228e-06  1.0399370352012851e-06 
 1.0535444733694468e-06  1.0673299630611459e-06  1.0812958340569510e-06  1.0954444466223003e-06 
 1.1097781919063925e-06  1.1242994923462963e-06  1.1390108020763484e-06  1.1539146073429071e-06 
 1.1690134269245353e-06  1.1843098125576785e-06  1.1998063493679162e-06  1.2155056563068519e-06 
 1.2314103865947249e-06  1.2475232281688081e-06  1.2638469041376776e-06  1.2803841732414268e-06 
 1.2971378303178896e-06  1.3141107067749898e-06  1.3313056710692454e-06  1.3487256291905481e-06 
 1.3663735251532811e-06  1.3842523414938668e-06  1.4023650997748190e-06  1.4207148610953980e-06 
 1.4393047266089408e-06  1.4581378380469651e-06  1.4772173782501284e-06  1.4965465717061363e-06 
 1.5161286850946881e-06  1.5359670278395550e-06  1.5560649526678757e-06  1.5764258561767826e-06 
 1.5970531794074290e-06  1.6179504084265367e-06  1.6391210749155466e-06  1.6605687567674845e-06 
 1.6822970786916299e-06  1.7043097128261057e-06  1.7266103793584694e-06  1.7492028471544448e-06 
 1.7720909343948610e-06  1.7952785092209378e-06  1.8187694903880094e-06  1.8425678479278042e-06 
 1.8666776038193884e-06  1.8911028326688910e-06  1.9158476623981227e-06  1.9409162749422042e-06 