  <PP_INFO>

############################################################
#    Opium Parameter File                                  #
############################################################
#-----------------------------------------------------------
#Command line   : opium Zn Zn.log ae ps nl tc2 ke upf qmcpack rpt 
 
#Opium version  : 4.1 
#Compile Host   : ben-XPS-15-7590 
#Compile OS     : Linux 6.5.0-26-generic x86_64 
#Compile Date   : Wed Apr 17 18:47:06 EDT 2024 
#-----------------------------------------------------------
#Execution Host : ben-XPS-15-7590 
#Execution Date : Fri Apr 19 01:29:23 2024
 
#-----------------------------------------------------------
############################################################
[Atom]
Zn
8            
100   2.00  -
200   2.00  -
210   6.00  -
300   2.00  -
310   6.00  -
320   10.00  -
400   0.00  -
410   0.00  -

[Pseudo]
5 1.184 1.184 1.095  1.184 1.184
g

[Gaussinfo]
20 3
2 2 4
2 12.006960  56.869394
2  9.103589  34.859484
2 10.245529  32.153902
2  7.286335  15.898530
1  3.465445  20.000000
3  3.528420  69.308902
2  3.545575 -83.673652
2  2.234272   0.840046

[KBdesign]
s

[Relativity]
nrl

[XC]
pbe

[Configs]
2

300  2.00 -
310  6.00 -
320  10.00 -
400  2.00 -
410  0.00 -

300  2.00 -
310  6.00 -
320  10.00 -
400  1.00 -
410  0.00 -

############################################################
  </PP_INFO>



<PP_HEADER>
   0         Version Number
   Zn        Element
   NC        Norm - Conserving pseudopotential
    F      Nonlinear Core Correction
SLA  PW   PBE  PBE     PBE  Exchange-Correlation functional
 20          Z valence
 0          Total energy
 0.000000   0.000000     Suggested cutoff for wfc and rho
 2           Max angular momentum component
 1163           Number of points in mesh
 3  2     Number of Wavefuncitons, Number of Projectors
 Wavefunctions         nl  l   occ
                      3S  0  2.000000
                      3P  1  6.000000
                      3D  2  10.000000
</PP_HEADER>
<PP_MESH>
  <PP_R>
 3.2182979486854341e-05  3.2604089504683282e-05  3.3030709691239411e-05  3.3462912146349628e-05 
 3.3900769913257555e-05  3.4344356990967971e-05  3.4793748346752720e-05  3.5249019928820551e-05 
 3.5710248679152440e-05  3.6177512546504949e-05  3.6650890499583784e-05  3.7130462540389723e-05 
 3.7616309717739086e-05  3.8108514140961198e-05  3.8607158993775121e-05  3.9112328548347722e-05 
 3.9624108179536129e-05  4.0142584379316079e-05  4.0667844771399381e-05  4.1199978126042438e-05 
 4.1739074375048744e-05  4.2285224626967464e-05  4.2838521182491064e-05  4.3399057550054372e-05 
 4.3966928461637548e-05  4.4542229888776284e-05  4.5125059058781045e-05  4.5715514471168749e-05 
 4.6313695914309423e-05  4.6919704482290696e-05  4.7533642592002904e-05  4.8155614000447832e-05 
 4.8785723822273902e-05  4.9424078547540630e-05  5.0070786059715982e-05  5.0725955653908743e-05 
 5.1389698055339693e-05  5.2062125438054452e-05  5.2743351443881138e-05  5.3433491201636117e-05 
 5.4132661346581092e-05  5.4840980040134573e-05  5.5558566989841666e-05  5.6285543469604816e-05 
 5.7022032340179360e-05  5.7768158069937354e-05  5.8524046755902966e-05  5.9289826145063215e-05 
 6.0065625655957505e-05  6.0851576400549656e-05  6.1647811206386191e-05  6.2454464639044303e-05 
 6.3271673024874084e-05  6.4099574474037768e-05  6.4938308903850762e-05  6.5788018062427951e-05 
 6.6648845552639546e-05  6.7520936856380225e-05  6.8404439359156063e-05  6.9299502374992736e-05 
 7.0206277171670284e-05  7.1124916996287584e-05  7.2055577101161428e-05  7.2998414770064616e-05 
 7.3953589344807237e-05  7.4921262252165835e-05  7.5901597031164894e-05  7.6894759360715366e-05 
 7.7900917087614843e-05  7.8920240254913752e-05  7.9952901130653559e-05  8.0999074236980090e-05 
 8.2058936379638317e-05  8.3132666677852886e-05  8.4220446594599792e-05  8.5322459967274020e-05 
 8.6438893038758504e-05  8.7569934488899390e-05  8.8715775466393797e-05  8.9876609621094156e-05 
 9.1052633136735512e-05  9.2244044764091054e-05  9.3451045854561478e-05  9.4673840394203846e-05 
 9.5912635038205736e-05  9.7167639145810442e-05  9.8439064815699151e-05  9.9727126921836311e-05 
 1.0103204314978339e-04  1.0235403403348880e-04  1.0369332299255840e-04  1.0505013637001385e-04 
 1.0642470347054535e-04  1.0781725659926443e-04  1.0922803110096439e-04  1.1065726539989363e-04 
 1.1210520104005042e-04  1.1357208272600420e-04  1.1505815836425123e-04  1.1656367910511137e-04 
 1.1808889938517309e-04  1.1963407697029391e-04  1.2119947299916341e-04  1.2278535202743621e-04 
 1.2439198207244269e-04  1.2601963465848446e-04  1.2766858486272232e-04  1.2933911136166557e-04 
 1.3103149647826853e-04  1.3274602622964396e-04  1.3448299037540059e-04  1.3624268246661318e-04 
 1.3802539989543353e-04  1.3983144394534989e-04  1.4166111984210535e-04  1.4351473680528131e-04 
 1.4539260810055631e-04  1.4729505109264881e-04  1.4922238729895242e-04  1.5117494244387328e-04 
 1.5315304651387812e-04  1.5515703381326288e-04  1.5718724302065084e-04  1.5924401724623025e-04 
 1.6132770408974032e-04  1.6343865569921711e-04  1.6557722883050685e-04  1.6774378490755880e-04 
 1.6993869008350654e-04  1.7216231530254892e-04  1.7441503636264055e-04  1.7669723397900199e-04 
 1.7900929384846237e-04  1.8135160671464259e-04  1.8372456843399193e-04  1.8612858004268891e-04 
 1.8856404782441707e-04  1.9103138337902824e-04  1.9353100369210368e-04  1.9606333120542559e-04 
 1.9862879388837088e-04  2.0122782531023926e-04  2.0386086471352655e-04  2.0652835708815902e-04 
 2.0923075324669684e-04  2.1196850990052283e-04  2.1474208973702757e-04  2.1755196149780476e-04 
 2.2039860005787002e-04  2.2328248650591487e-04  2.2620410822561310e-04  2.2916395897798914e-04 
 2.3216253898486485e-04  2.3520035501339834e-04  2.3827792046172866e-04  2.4139575544574151e-04 
 2.4455438688696991e-04  2.4775434860164537e-04  2.5099618139091376e-04  2.5428043313223246e-04 
 2.5760765887196277e-04  2.6097842091917330e-04  2.6439328894067312e-04  2.6785284005728552e-04 
 2.7135765894138346e-04  2.7490833791569974e-04  2.7850547705343226e-04  2.8214968427965679e-04 
 2.8584157547406809e-04  2.8958177457506513e-04  2.9337091368519797e-04  2.9720963317799478e-04 
 3.0109858180618631e-04  3.0503841681134693e-04  3.0902980403496952e-04  3.1307341803099489e-04 
 3.1716994217981253e-04  3.2132006880375365e-04  3.2552449928409578e-04  3.2978394417959648e-04 
 3.3409912334658113e-04  3.3847076606059967e-04  3.4289961113967584e-04  3.4738640706916867e-04 
 3.5193191212826933e-04  3.5653689451815168e-04  3.6120213249179995e-04  3.6592841448553531e-04 
 3.7071653925226377e-04  3.7556731599646710e-04  3.8048156451096039e-04  3.8546011531543896e-04 
 3.9050380979683815e-04  3.9561350035152986e-04  4.0079005052937939e-04  4.0603433517968749e-04 
 4.1134724059904238e-04  4.1672966468110433e-04  4.2218251706835423e-04  4.2770671930582397e-04 
 4.3330320499684015e-04  4.3897291996080397e-04  4.4471682239303920e-04  4.5053588302672781e-04 
 4.5643108529696701e-04  4.6240342550697152e-04  4.6845391299645158e-04  4.7458357031219373e-04 
 4.8079343338087337e-04  4.8708455168412930e-04  4.9345798843592815e-04  4.9991482076225055e-04 
 5.0645613988312729e-04  5.1308305129705895e-04  5.1979667496784745e-04  5.2659814551387154e-04 
 5.3348861239984192e-04  5.4046924013106251e-04  5.4754120845023474e-04  5.5470571253683559e-04 
 5.6196396320910846e-04  5.6931718712869227e-04  5.7676662700793086e-04  5.8431354181989401e-04 
 5.9195920701114756e-04  5.9970491471730619e-04  6.0755197398140769e-04  6.1550171097514493e-04 
 6.2355546922299024e-04  6.3171460982925655e-04  6.3998051170812591e-04  6.4835457181668945e-04 
 6.5683820539103694e-04  6.6543284618543366e-04  6.7413994671463033e-04  6.8296097849933997e-04 
 6.9189743231492953e-04  7.0095081844336288e-04  7.1012266692844388e-04  7.1941452783439634e-04 
 7.2882797150782908e-04  7.3836458884312815e-04  7.4802599155132036e-04  7.5781381243245907e-04 
 7.6772970565156895e-04  7.7777534701820538e-04  7.8795243426966815e-04  7.9826268735792535e-04 
 8.0870784874028853e-04  8.1928968367389165e-04  8.3000998051402494e-04  8.4087055101636856e-04 
 8.5187323064318744e-04  8.6301987887352552e-04  8.7431237951746447e-04  8.8575264103448945e-04 
 8.9734259685602638e-04  9.0908420571219413e-04  9.2097945196283548e-04  9.3303034593287930e-04 
 9.4523892425208767e-04  9.5760725019925495e-04  9.7013741405090363e-04  9.8283153343454847e-04 
 9.9569175368657706e-04  1.0087202482148218e-03  1.0219192188658662e-03  1.0352908962971657e-03 
 1.0488375403540325e-03  1.0625614404515535e-03  1.0764649159615096e-03  1.0905503166043539e-03 
 1.1048200228463204e-03  1.1192764463017256e-03  1.1339220301405421e-03  1.1487592495012966e-03 
 1.1637906119093748e-03  1.1790186577008005e-03  1.1944459604515555e-03  1.2100751274125238e-03 
 1.2259087999501208e-03  1.2419496539926914e-03  1.2582004004827465e-03  1.2746637858351219e-03 
 1.2913425924011264e-03  1.3082396389387672e-03  1.3253577810891262e-03  1.3426999118589683e-03 
 1.3602689621096701e-03  1.3780679010525403e-03  1.3960997367506239e-03  1.4143675166270700e-03 
 1.4328743279801578e-03  1.4516232985050536e-03  1.4706175968224008e-03  1.4898604330138238e-03 
 1.5093550591644374e-03  1.5291047699124607e-03  1.5491129030060166e-03  1.5693828398672196e-03 
 1.5899180061636428e-03  1.6107218723872662e-03  1.6317979544409969e-03  1.6531498142328650e-03 
 1.6747810602779957e-03  1.6966953483084537e-03  1.7188963818910749e-03  1.7413879130533754e-03 
 1.7641737429176534e-03  1.7872577223433889e-03  1.8106437525780483e-03  1.8343357859163987e-03 
 1.8583378263684659e-03  1.8826539303362132e-03  1.9072882072990857e-03  1.9322448205085223e-03 
 1.9575279876915546e-03  1.9831419817636126e-03  2.0090911315506581e-03  2.0353798225207689e-03 
 2.0620124975252851e-03  2.0889936575496718e-03  2.1163278624741918e-03  2.1440197318445347e-03 
 2.1720739456525338e-03  2.2004952451270946e-03  2.2292884335354730e-03  2.2584583769950412e-03 
 2.2880100052956728e-03  2.3179483127328828e-03  2.3482783589518857e-03  2.3790052698026815e-03 
 2.4101342382063361e-03  2.4416705250326002e-03  2.4736194599890072e-03  2.5059864425216057e-03 
 2.5387769427274807e-03  2.5719965022792139e-03  2.6056507353614303e-03  2.6397453296196235e-03 
 2.6742860471213720e-03  2.7092787253301430e-03  2.7447292780918404e-03  2.7806436966342565e-03 
 2.8170280505796048e-03  2.8538884889703006e-03  2.8912312413081650e-03  2.9290626186072189e-03 
 2.9673890144602693e-03  3.0062169061194364e-03  3.0455528555908252e-03  3.0854035107435182e-03 
 3.1257756064330868e-03  3.1666759656397902e-03  3.2081115006216822e-03  3.2500892140827978e-03 
 3.2926162003566175e-03  3.3356996466050422e-03  3.3793468340330311e-03  3.4235651391191441e-03 
 3.4683620348621843e-03  3.5137450920441535e-03  3.5597219805097312e-03  3.6063004704624977e-03 
 3.6534884337781196e-03  3.7012938453347033e-03  3.7497247843605854e-03  3.7987894357997321e-03 
 3.8484960916950152e-03  3.8988531525895884e-03  3.9498691289465964e-03  4.0015526425874670e-03 
 4.0539124281490178e-03  4.1069573345596331e-03  4.1606963265347404e-03  4.2151384860918927e-03 
 4.2702930140856308e-03  4.3261692317624612e-03  4.3827765823361590e-03  4.4401246325837061e-03 
 4.4982230744620840e-03  4.5570817267462527e-03  4.6167105366885413e-03  4.6771195816997435e-03 
 4.7383190710522504e-03  4.8003193476054236e-03  4.8631308895535647e-03  4.9267643121967642e-03 
 4.9912303697348991e-03  5.0565399570851313e-03  5.1227041117231651e-03  5.1897340155486159e-03 
 5.2576409967747583e-03  5.3264365318430500e-03  5.3961322473626578e-03  5.4667399220753865e-03 
 5.5382714888463167e-03  5.6107390366804824e-03  5.6841548127659495e-03  5.7585312245436128e-03 
 5.8338808418040887e-03  5.9102163988120262e-03  5.9875507964582513e-03  6.0658971044400259e-03 
 6.1452685634698738e-03  6.2256785875132812e-03  6.3071407660556956e-03  6.3896688663991792e-03 
 6.4732768359891139e-03  6.5579788047713623e-03  6.6437890875802336e-03  6.7307221865577681e-03 
 6.8187927936046010e-03  6.9080157928629394e-03  6.9984062632320165e-03  7.0899794809164644e-03 
 7.1827509220080245e-03  7.2767362651010451e-03  7.3719513939422120e-03  7.4684124001149054e-03 
 7.5661355857587617e-03  7.6651374663247460e-03  7.7654347733663084e-03  7.8670444573670558e-03 
 7.9699836906054252e-03  8.0742698700568376e-03  8.1799206203338349e-03  8.2869537966646766e-03 
 8.3953874879109016e-03  8.5052400196244139e-03  8.6165299571445402e-03  8.7292761087355963e-03 
 8.8434975287655544e-03  8.9592135209262489e-03  9.0764436414957784e-03  9.1952077026435323e-03 
 9.3155257757785246e-03  9.4374181949414705e-03  9.5609055602413288e-03  9.6860087413367449e-03 
 9.8127488809630885e-03  9.9411473985056044e-03  1.0071225993619363e-02  1.0203006649896533e-02 
 1.0336511638581678e-02  1.0471763522335651e-02  1.0608785159048700e-02  1.0747599705703565e-02 
 1.0888230622289018e-02  1.1030701675764681e-02  1.1175036944077685e-02  1.1321260820231908e-02 
 1.1469398016410445e-02  1.1619473568152034e-02  1.1771512838582120e-02  1.1925541522699257e-02 
 1.2081585651717670e-02  1.2239671597466568e-02  1.2399826076847042e-02  1.2562076156347286e-02 
 1.2726449256616913e-02  1.2892973157101084e-02  1.3061676000735330e-02  1.3232586298701766e-02 
 1.3405732935247505e-02  1.3581145172566240e-02  1.3758852655743583e-02  1.3938885417767144e-02 
 1.4121273884602204e-02  1.4306048880333759e-02  1.4493241632375871e-02  1.4682883776749171e-02 
 1.4875007363427440e-02  1.5069644861754071e-02  1.5266829165929552e-02  1.5466593600570603e-02 
 1.5668971926342142e-02  1.5873998345662901e-02  1.6081707508485730e-02  1.6292134518153509e-02 
 1.6505314937331716e-02  1.6721284794018590e-02  1.6940080587633913e-02  1.7161739295187581e-02 
 1.7386298377528735e-02  1.7613795785676758e-02  1.7844269967235104e-02  1.8077759872888999e-02 
 1.8314304962988231e-02  1.8553945214216026e-02  1.8796721126345221e-02  1.9042673729082769e-02 
 1.9291844589003942e-02  1.9544275816577104e-02  1.9800010073280541e-02  2.0059090578812298e-02 
 2.0321561118394452e-02  2.0587466050172899e-02  2.0856850312713983e-02  2.1129759432599256e-02 
 2.1406239532119495e-02  2.1686337337069577e-02  2.1970100184645205e-02  2.2257576031443006e-02 
 2.2548813461565301e-02  2.2843861694830960e-02  2.3142770595093645e-02  2.3445590678668936e-02 
 2.3752373122871717e-02  2.4063169774665185e-02  2.4378033159423249e-02  2.4697016489807329e-02 
 2.5020173674759474e-02  2.5347559328613090e-02  2.5679228780322881e-02  2.6015238082815598e-02 
 2.6355644022463091e-02  2.6700504128679393e-02  2.7049876683643191e-02  2.7403820732147859e-02 
 2.7762396091579995e-02  2.8125663362028805e-02  2.8493683936527590e-02  2.8866520011429374e-02 
 2.9244234596918203e-02  2.9626891527658017e-02  3.0014555473580899e-02  3.0407291950816335e-02 
 3.0805167332763759e-02  3.1208248861309695e-02  3.1616604658191848e-02  3.2030303736511806e-02 
 3.2449416012398459e-02  3.2874012316823957e-02  3.3304164407574326e-02  3.3739944981376745e-02 
 3.4181427686185310e-02  3.4628687133627954e-02  3.5081798911615801e-02  3.5540839597117783e-02 
 3.6005886769102324e-02  3.6477019021648328e-02  3.6954315977227835e-02  3.7437858300162330e-02 
 3.7927727710255314e-02  3.8424006996602963e-02  3.8926780031585888e-02  3.9436131785043654e-02 
 3.9952148338634898e-02  4.0474916900385342e-02  4.1004525819426180e-02  4.1541064600925243e-02 
 4.2084623921213607e-02  4.2635295643110173e-02  4.3193172831446518e-02  4.3758349768795300e-02 
 4.4330921971404119e-02  4.4910986205337983e-02  4.5498640502833046e-02  4.6093984178864254e-02 
 4.6697117847929834e-02  4.7308143441055370e-02  4.7927164223020437e-02  4.8554284809810451e-02 
 4.9189611186297208e-02  4.9833250724150485e-02  5.0485312199984103e-02  5.1145905813739449e-02 
 5.1815143207309511e-02  5.2493137483406671e-02  5.3180003224677273e-02  5.3875856513066436e-02 
 5.4580814949436014e-02  5.5294997673439671e-02  5.6018525383657577e-02  5.6751520357994828e-02 
 5.7494106474346697e-02  5.8246409231534263e-02  5.9008555770514046e-02  5.9780674895865124e-02 
 6.0562897097557439e-02  6.1355354573004742e-02  6.2158181249406558e-02  6.2971512806382010e-02 
 6.3795486698900047e-02  6.4630242180509612e-02  6.5475920326873924e-02  6.6332664059612495e-02 
 6.7200618170455279e-02  6.8079929345712928e-02  6.8970746191066759e-02  6.9873219256683924e-02 
 7.0787501062660491e-02  7.1713746124797736e-02  7.2652110980715737e-02  7.3602754216308533e-02 
 7.4565836492545570e-02  7.5541520572623727e-02  7.6529971349474868e-02  7.7531355873632732e-02 
 7.8545843381465377e-02  7.9573605323776178e-02  8.0614815394779590e-02  8.1669649561455768e-02 
 8.2738286093289509e-02  8.3820905592398132e-02  8.4917691024053735e-02  8.6028827747604814e-02 
 8.7154503547802076e-02  8.8294908666535069e-02  8.9450235834983141e-02  9.0620680306187543e-02 
 9.1806439888049651e-02  9.3007714976761066e-02  9.4224708590670919e-02  9.5457626404596513e-02 
 9.6706676784582862e-02  9.7972070823117055e-02  9.9254022374803352e-02  1.0055274809250518e-01 
 1.0186846746396008e-01  1.0320140284887303e-01  1.0455177951649676e-01  1.0591982568370212e-01 
 1.0730577255354747e-01  1.0870985435435247e-01  1.1013230837928333e-01  1.1157337502645583e-01 
 1.1303329783956324e-01  1.1451232354903572e-01  1.1601070211373839e-01  1.1752868676321498e-01 
 1.1906653404048419e-01  1.2062450384539612e-01  1.2220285947855590e-01  1.2380186768582219e-01 
 1.2542179870338779e-01  1.2706292630345031e-01  1.2872552784048036e-01  1.3040988429809447e-01 
 1.3211628033654307e-01  1.3384500434081809e-01  1.3559634846939075e-01  1.3737060870358719e-01 
 1.3916808489760987e-01  1.4098908082921374e-01  1.4283390425104542e-01  1.4470286694265397e-01 
 1.4659628476318270e-01  1.4851447770474976e-01  1.5045776994652774e-01  1.5242648990953073e-01 
 1.5442097031211821e-01  1.5644154822622527e-01  1.5848856513432860e-01  1.6056236698715776e-01 
 1.6266330426216200e-01  1.6479173202274064e-01  1.6694800997825138e-01  1.6913250254480089e-01 
 1.7134557890683219e-01  1.7358761307951778e-01  1.7585898397196911e-01  1.7816007545127313e-01 
 1.8049127640736662e-01  1.8285298081875964e-01  1.8524558781911882e-01  1.8766950176472186e-01 
 1.9012513230279468e-01  1.9261289444074289e-01  1.9513320861628894e-01  1.9768650076852703e-01 
 2.0027320240990798e-01  2.0289375069916582e-01  2.0554858851519894e-01  2.0823816453191629e-01 
 2.1096293329406648e-01  2.1372335529405559e-01  2.1651989704977168e-01  2.1935303118342744e-01 
 2.2222323650143463e-01  2.2513099807532341e-01  2.2807680732372046e-01  2.3106116209540006e-01 
 2.3408456675342171e-01  2.3714753226036858e-01  2.4025057626470156e-01  2.4339422318824286e-01 
 2.4657900431480478e-01  2.4980545787997779e-01  2.5307412916209365e-01  2.5638557057437888e-01 
 2.5974034175831401e-01  2.6313900967821302e-01  2.6658214871704394e-01  2.7007034077349940e-01 
 2.7360417536033904e-01  2.7718424970401906e-01  2.8081116884562429e-01  2.8448554574312224e-01 
 2.8820800137495389e-01  2.9197916484498082e-01  2.9579967348880520e-01  2.9967017298148108e-01 
 3.0359131744663481e-01  3.0756376956701370e-01  3.1158820069648097e-01  3.1566529097347595e-01 
 3.1979572943595946e-01  3.2398021413786238e-01  3.2821945226705940e-01  3.3251416026488301e-01 
 3.3686506394720733e-01  3.4127289862711013e-01  3.4573840923914345e-01  3.5026235046522902e-01 
 3.5484548686220146e-01  3.5948859299102026e-01  3.6419245354767216e-01  3.6895786349578685e-01 
 3.7378562820098776e-01  3.7867656356700058e-01  3.8363149617354309e-01  3.8865126341601902e-01 
 3.9373671364703983e-01  3.9888870631979845e-01  4.0410811213331882e-01  4.0939581317960616e-01 
 4.1475270309272322e-01  4.2017968719981375e-01  4.2567768267410938e-01  4.3124761868993100e-01 
 4.3689043657972226e-01  4.4260708999313703e-01  4.4839854505820825e-01  4.5426578054462630e-01 
 4.6020978802915286e-01  4.6623157206320015e-01  4.7233215034260240e-01  4.7851255387960873e-01 
 4.8477382717712686e-01  4.9111702840524657e-01  4.9754322958007280e-01  5.0405351674489907e-01 
 5.1064899015375143e-01  5.1733076445733372e-01  5.2409996889140742e-01  5.3095774746763158e-01 
 5.3790525916690857e-01  5.4494367813525124e-01  5.5207419388221746e-01  5.5929801148193981e-01 
 5.6661635177678593e-01  5.7403045158368415e-01  5.8154156390314793e-01  5.8915095813103646e-01 
 5.9685992027308565e-01  6.0466975316224503e-01  6.1258177667886160e-01  6.2059732797374056e-01 
 6.2871776169412885e-01  6.3694445021265267e-01  6.4527878385925175e-01  6.5372217115614895e-01 
 6.6227603905589472e-01  6.7094183318252087e-01  6.7972101807586127e-01  6.8861507743905825e-01 
 6.9762551438931297e-01  7.0675385171191574e-01  7.1600163211760026e-01  7.2537041850326589e-01 
 7.3486179421611031e-01  7.4447736332121939e-01  7.5421875087265788e-01  7.6408760318810753e-01 
 7.7408558812709838e-01  7.8421439537288118e-01  7.9447573671798821e-01  8.0487134635352964e-01 
 8.1540298116227661e-01  8.2607242101557776e-01  8.3688146907416450e-01  8.4783195209288209e-01 
 8.5892572072942541e-01  8.7016464985709829e-01  8.8155063888167318e-01  8.9308561206239478e-01 
 9.0477151883718510e-01  9.1661033415210258e-01  9.2860405879511310e-01  9.4075471973422753e-01 
 9.5306437046006420e-01  9.6553509133289417e-01  9.7816898993422607e-01  9.9096820142299391e-01 
 1.0039348888964024e+00  1.0170712437554963e+00  1.0303794860755131e+00  1.0438618649810794e+00 
 1.0575206590263215e+00  1.0713581765799389e+00  1.0853767562153345e+00  1.0995787671058317e+00 
 1.1139666094250740e+00  1.1285427147526572e+00  1.1433095464850747e+00  1.1582696002520352e+00 
 1.1734254043382322e+00  1.1887795201106284e+00  1.2043345424513334e+00  1.2200931001961453e+00 
 1.2360578565788303e+00  1.2522315096812140e+00  1.2686167928891661e+00  1.2852164753545474e+00 
 1.3020333624632028e+00  1.3190702963090799e+00  1.3363301561745506e+00  1.3538158590170075e+00 
 1.3715303599618511e+00  1.3894766528019031e+00  1.4076577705033675e+00  1.4260767857184085e+00 
 1.4447368113044368e+00  1.4636410008501888e+00  1.4827925492086917e+00  1.5021946930372005e+00 
 1.5218507113442015e+00  1.5417639260435714e+00  1.5619377025159900e+00  1.5823754501776965e+00 
 1.6030806230566901e+00  1.6240567203764666e+00  1.6453072871473995e+00  1.6668359147658505e+00 
 1.6886462416211303e+00  1.7107419537103830e+00  1.7331267852615440e+00  1.7558045193644236e+00 
 1.7787789886100605e+00  1.8020540757384385e+00  1.8256337142946790e+00  1.8495218892938206e+00 
 1.8737226378942935e+00  1.8982400500802119e+00  1.9230782693525890e+00  1.9482414934295986e+00 
 1.9737339749560012e+00  1.9995600222218493e+00  2.0257239998905989e+00  2.0522303297367492e+00 
 2.0790834913931318e+00  2.1062880231079797e+00  2.1338485225119057e+00  2.1617696473948986e+00 
 2.1900561164935222e+00  2.2187127102883784e+00  2.2477442718120244e+00  2.2771557074674553e+00 
 2.3069519878572988e+00  2.3371381486238594e+00  2.3677192913001526e+00  2.3987005841720763e+00 
 2.4300872631518642e+00  2.4618846326629678e+00  2.4940980665365151e+00  2.5267330089195013e+00 
 2.5597949751948641e+00  2.5932895529135949e+00  2.6272224027390481e+00  2.6615992594036073e+00 
 2.6964259326778741e+00  2.7317083083525135e+00  2.7674523492329945e+00  2.8036640961473003e+00 
 2.8403496689668466e+00  2.8775152676407552e+00  2.9151671732436601e+00  2.9533117490372232e+00 
 2.9919554415455409e+00  3.0311047816446228e+00  3.0707663856661260e+00  3.1109469565155274e+00 
 3.1516532848049348e+00  3.1928922500007135e+00  3.2346708215861355e+00  3.2769960602392345e+00 
 3.3198751190260820e+00  3.3633152446096686e+00  3.4073237784746158e+00  3.4519081581678797e+00 
 3.4970759185557494e+00  3.5428346930972334e+00  3.5891922151341404e+00  3.6361563191980300e+00 
 3.6837349423342678e+00  3.7319361254434056e+00  3.7807680146401124e+00  3.8302388626298867e+00 
 3.8803570301037849e+00  3.9311309871513958e+00  3.9825693146923067e+00  4.0346807059263012e+00 
 4.0874739678025280e+00  4.1409580225078964e+00  4.1951419089749491e+00  4.2500347844094621e+00 
 4.3056459258380420e+00  4.3619847316759355e+00  4.4190607233154271e+00  4.4768835467349524e+00 
 4.5354629741292900e+00  4.5948089055610968e+00  4.6549313706340332e+00  4.7158405301877941e+00 
 4.7775466780153133e+00  4.8400602426024397e+00  4.9033917888903780e+00  4.9675520200611860e+00 
 5.0325517793466368e+00  5.0984020518607593e+00  5.1651139664563352e+00  5.2326987976057149e+00 
 5.3011679673062169e+00  5.3705330470104871e+00  5.4408057595821013e+00  5.5119979812767177e+00 
 5.5841217437492592e+00  5.6571892360872438e+00  5.7312128068707846e+00  5.8062049662595276e+00 
 5.8821783881068983e+00  5.9591459121020129e+00  6.0371205459396160e+00  6.1161154675184140e+00 
 6.1961440271681694e+00  6.2772197499059370e+00  6.3593563377218301e+00  6.4425676718946816e+00 
 6.5268678153380177e+00  6.6122710149767219e+00  6.6987917041548020e+00  6.7864445050746571e+00 
 6.8752442312682769e+00  6.9652058901007141e+00  7.0563446853064429e+00  7.1486760195587715e+00 
 7.2422154970729453e+00  7.3369789262432992e+00  7.4329823223149072e+00  7.5302419100902016e+00 
 7.6287741266710078e+00  7.7285956242364415e+00  7.8297232728571755e+00  7.9321741633465219e+00 
 8.0359656101488159e+00  8.1411151542656004e+00  8.2476405662200971e+00  8.3555598490604677e+00 
 8.4648912414023698e+00  8.5756532205113292e+00  8.6878645054254555e+00  8.8015440601189390e+00 
 8.9167110967071110e+00  9.0333850786932626e+00  9.1515857242580410e+00  9.2713330095918796e+00 
 9.3926471722710083e+00  9.5155487146776601e+00  9.6400584074650180e+00  9.7661972930675116e+00 
 9.8939866892570247e+00  1.0023448192745670e+01  1.0154603682835665e+01  1.0287475325116997e+01 
 1.0422085575213462e+01  1.0558457182577710e+01  1.0696613194335962e+01  1.0836576959183031e+01 
 1.0978372131328324e+01  1.1122022674493381e+01  1.1267552865961914e+01  1.1414987300682663e+01 
 1.1564350895426001e+01  1.1715668892994938e+01  1.1868966866491217e+01  1.2024270723637224e+01 
 1.2181606711154453e+01  1.2341001419199269e+01  1.2502481785856707e+01  1.2666075101693071e+01 
 1.2831809014368105e+01  1.2999711533307513e+01  1.3169811034436622e+01  1.3342136264975975e+01 
 1.3516716348299685e+01  1.3693580788857348e+01  1.3872759477160400e+01  1.4054282694833578e+01 
 1.4238181119732735e+01  1.4424485831129376e+01  1.4613228314963148e+01  1.4804440469163048e+01 
 1.4998154609038236e+01  1.5194403472739408e+01  1.5393220226791625e+01  1.5594638471699524e+01 
 1.5798692247625889e+01  1.6005416040144517e+01  1.6214844786068369e+01  1.6427013879353964e+01 
 1.6641959177083052e+01  1.6859717005522544e+01  1.7080324166263722e+01  1.7303817942441825e+01 
 1.7530236105036991e+01  1.7759616919257535e+01  1.7991999151007043e+01  1.8227422073435765e+01 
 1.8465925473577929e+01  1.8707549659075816e+01  1.8952335464991862e+01  1.9200324260709884e+01 
 1.9451557956926600e+01  1.9706079012734623e+01  1.9963930442798173e+01  2.0225155824622639e+01 
 2.0489799305919295e+01  2.0757905612066356e+01  2.1029520053667682e+01  2.1304688534210367e+01 
 2.1583457557822555e+01  2.1865874237132768e+01  2.2151986301231922e+01  2.2441842103739848e+01 
 2.2735490630977061e+01  2.3032981510243577e+01  2.3334365018206046e+01  2.3639692089394643e+01 
 2.3949014324811102e+01  2.4262384000649423e+01  2.4579854077130673e+01  2.4901478207453390e+01 
 2.5227310746861090e+01  2.5557406761828457e+01  2.5891822039367664e+01  2.6230613096456572e+01 
 2.6573837189590179e+01  2.6921552324457128e+01  2.7273817265742810e+01  2.7630691547060774e+01 
 2.7992235481013857e+01  2.8358510169387465e+01  2.8729577513475697e+01  2.9105500224542880e+01 
 2.9486341834421918e+01  2.9872166706251317e+01  3.0263040045352721e+01  3.0659027910250749e+01 
 3.1060197223837065e+01  3.1466615784680481e+01  3.1878352278485099e+01  3.2295476289698342e+01 
 3.2718058313270909e+01  3.3146169766570551e+01  3.3579883001451840e+01  3.4019271316483746e+01 
 3.4464408969337299e+01  3.4915371189335346e+01  3.5372234190166296e+01  3.5835075182764726e+01 
 3.6303972388359988e+01  3.6779005051695854e+01  3.7260253454423037e+01  3.7747798928667031e+01 
 3.8241723870773384e+01  3.8742111755232898e+01  3.9249047148789018e+01  3.9762615724729812e+01 
 4.0282904277366960e+01  4.0810000736704190e+01  4.1343994183297674e+01  4.1884974863310845e+01 
 4.2433034203766198e+01  4.2988264827996723e+01  4.3550760571299406e+01  4.4120616496793744e+01 
 4.4697928911487288e+01  4.5282795382552273e+01  4.5875314753814344e+01  4.6475587162457494e+01 
 4.7083714055947503e+01  4.7699798209176748e+01  4.8323943741833482e+01  4.8956256135998252e+01 
 4.9596842253970621e+01  5.0245810356329201e+01  5.0903270120227894e+01  5.1569332657931604e+01 
 5.2244110535594508e+01  5.2927717792283964e+01  5.3620269959253406e+01  5.4321884079467395e+01 
 5.5032678727382148e+01  5.5752774028985030e+01  5.6482291682095706e+01  5.7221354976933974e+01 
 5.7970088816955702e+01  5.8728619739961921e+01  5.9497075939483985e+01  6.0275587286448619e+01 
 6.1064285351126394e+01  6.1863303425367413e+01  6.2672776545127967e+01  6.3492841513291914e+01 
 6.4323636922790726e+01  6.5165303180025958e+01  6.6017982528598338e+01  6.6881819073347231e+01 
 6.7756958804704738e+01  6.8643549623368330e+01  6.9541741365296588e+01  7.0451685827031767e+01 
 7.1373536791353416e+01  7.2307450053268724e+01  7.3253583446341764e+01  7.4212096869367841e+01 
 7.5183152313396832e+01  7.6166913889109949e+01  7.7163547854554949e+01  7.8173222643244088e+01 
 7.9196108892619762e+01  8.0232379472892674e+01  8.1282209516257339e+01  8.2345776446489779e+01 
 8.3423260008932587e+01  8.4514842300872331e+01  8.5620707802314428e+01  8.6741043407160689e+01 
 8.7876038454794809e+01  8.9025884762081446e+01  9.0190776655782926e+01  9.1370911005402007e+01 
 9.2566487256452618e+01  9.3777707464166753e+01  9.5004776327642347e+01  9.6247901224437868e+01 
 9.7507292245619652e+01  9.8783162231267724e+01  1.0007572680644627e+02  1.0138520441764530e+02 