  <PP_INFO>

############################################################
#    Opium Parameter File                                  #
############################################################
#-----------------------------------------------------------
#Command line   : opium Pb_sorep Pb_sorep.log ae ps nl tc2 ke upf qmcpack rpt 
 
#Opium version  : 4.1 
#Compile Host   : py-garuda.cos.ncsu.edu 
#Compile OS     : Linux 5.15.0-113-generic x86_64 
#Compile Date   : Sat Jul 13 02:11:52 EDT 2024 
#-----------------------------------------------------------
#Execution Host : py-garuda.cos.ncsu.edu 
#Execution Date : Tue May 13 17:13:12 2025
 
#-----------------------------------------------------------
############################################################
[Atom]
Pb
16            
100   2.00  -
200   2.00  -
210   6.00  -
300   2.00  -
310   6.00  -
320   10.00  -
400   2.00  -
410   6.00  -
420   10.00  -
430   14.00  -
500   2.00  -
510   6.00  -
520   10.00  -
600   2.00  -
610   0.50  -
620   0.50  -

[Pseudo]
3 -1 -1 -1
g

[KBdesign]
s

[Relativity]
frl

[XC]
pbe

[Gaussinfo]
4 5 3
2 2 2 2 4  4 2 2
2 1.98979412 35.77436124
2 0.25451799 -0.56423437
2 0.92215360 8.16392698
2 0.22720613 -0.25297702
2 0.60150052 2.96041292
2 0.53039596 4.24868609
2 0.81352636 -2.14500026
2 0.77897618 -2.66641882
1 1.99844159 4.00000000
3 2.00747506 7.99376635
2 1.98810694 -12.70701542
2 0.99797468 -0.23586265
2 0.891456049939027  -5.35611838205016
2 0.951352397028372  5.44828490648028
2 0.175455211982948  0.339698890771244
2 0.0416789219011291 -0.0548945557963116
2 0.585309470979108  -3.37370316293675
2 0.511372026399903  2.65729448782938
2 0.813760000000000  1.42997200000000
2 0.779307000000000  -1.33319000000000

[Configs]
8 

600  2.00 -
610  2.00 -
620  0.00 -

600  2.00 -
610  1.00 -
620  1.00 -

600  2.00 -
610  1.00 -
620  0.00 -

600  2.00 -
610  0.00 -
620  1.00 -

600  2.00 -
610  0.00 -
620  0.00 -

600  1.00 -
610  1.00 -
620  0.00 -

600  1.00 -
610  0.00 -
620  1.00 -

600  1.00 -
610  0.00 -
620  0.00 -
############################################################
  </PP_INFO>



<PP_HEADER>
   0         Version Number
   Pb        Element
   NC        Norm - Conserving pseudopotential
    F      Nonlinear Core Correction
SLA  PW   PBE  PBE     PBE  Exchange-Correlation functional
 4          Z valence
 0          Total energy
 0.000000   0.000000     Suggested cutoff for wfc and rho
 2           Max angular momentum component
 1189           Number of points in mesh
 5  4     Number of Wavefuncitons, Number of Projectors
 Wavefunctions         nl  l   occ
                      6S  0  2.000000
                      6P  1  0.166667
                      6P  1  0.333333
                      6D  2  0.200000
                      6D  2  0.300000
</PP_HEADER>
<PP_MESH>
  <PP_R>
 2.3017706561202741e-05  2.3318890198483090e-05  2.3624014783708189e-05  2.3933131883659182e-05 
 2.4246293739861680e-05  2.4563553277414757e-05  2.4884964113935335e-05  2.5210580568619784e-05 
 2.5540457671423952e-05  2.5874651172363355e-05  2.6213217550935055e-05  2.6556214025662859e-05 
 2.6903698563767358e-05  2.7255729890962542e-05  2.7612367501380597e-05  2.7973671667626463e-05 
 2.8339703450964201e-05  2.8710524711636392e-05  2.9086198119318676e-05  2.9466787163711087e-05 
 2.9852356165267968e-05  3.0242970286068281e-05  3.0638695540828126e-05  3.1039598808057466e-05 
 3.1445747841362588e-05  3.1857211280896821e-05  3.2274058664960764e-05  3.2696360441754473e-05 
 3.3124187981283341e-05  3.3557613587419810e-05  3.3996710510122929e-05  3.4441552957817709e-05 
 3.4892216109936631e-05  3.5348776129624939e-05  3.5811310176612666e-05  3.6279896420254625e-05 
 3.6754614052741266e-05  3.7235543302482361e-05  3.7722765447665771e-05  3.8216362829993665e-05 
 3.8716418868598504e-05  3.9223018074140919e-05  3.9736246063092448e-05  4.0256189572204752e-05 
 4.0782936473168377e-05  4.1316575787463304e-05  4.1857197701403760e-05  4.2404893581379934e-05 
 4.2959755989299109e-05  4.3521878698228849e-05  4.4091356708244914e-05  4.4668286262486324e-05 
 4.5252764863420937e-05  4.5844891289323430e-05  4.6444765610969090e-05  4.7052489208546044e-05 
 4.7668164788788719e-05  4.8291896402335541e-05  4.8923789461313778e-05  4.9563950757154293e-05 
 5.0212488478639766e-05  5.0869512230188709e-05  5.1535133050378915e-05  5.2209463430713239e-05 
 5.2892617334630919e-05  5.3584710216767708e-05  5.4285859042467917e-05  5.4996182307551888e-05 
 5.5715800058342138e-05  5.6444833911951188e-05  5.7183407076835515e-05  5.7931644373617878e-05 
 5.8689672256182294e-05  5.9457618833045107e-05  6.0235613889005590e-05  6.1023788907079896e-05 
 6.1822277090722077e-05  6.2631213386335542e-05  6.3450734506079640e-05  6.4280978950974159e-05 
 6.5122087034306321e-05  6.5974200905344175e-05  6.6837464573359990e-05  6.7712023931968337e-05 
 6.8598026783782355e-05  6.9495622865392779e-05  7.0404963872673773e-05  7.1326203486419908e-05 
 7.2259497398318456e-05  7.3205003337261932e-05  7.4162881096004384e-05  7.5133292558166888e-05 
 7.6116401725596230e-05  7.7112374746081595e-05  7.8121379941434047e-05  7.9143587835932950e-05 
 8.0179171185145533e-05  8.1228305005122587e-05  8.2291166601976723e-05  8.3367935601847545e-05 
 8.4458793981258829e-05  8.5563926097873038e-05  8.6683518721648205e-05  8.7817761066402502e-05 
 8.8966844821791776e-05  9.0130964185705715e-05  9.1310315897087370e-05  9.2505099269183039e-05 
 9.3715516223226268e-05  9.4941771322563204e-05  9.6184071807224283e-05  9.7442627628948169e-05 
 9.8717651486664295e-05  1.0000935886243917e-04  1.0131796805789373e-04  1.0264370023109663e-04 
 1.0398677943394053e-04  1.0534743265000735e-04  1.0672588983292913e-04  1.0812238394525060e-04 
 1.0953715099780053e-04  1.1097043008957814e-04  1.1242246344816124e-04  1.1389349647064350e-04 
 1.1538377776510677e-04  1.1689355919263686e-04  1.1842309590988851e-04  1.1997264641220735e-04 
 1.2154247257731635e-04  1.2313283970957377e-04  1.2474401658481028e-04  1.2637627549575233e-04 
 1.2802989229804095e-04  1.2970514645685145e-04  1.3140232109412397e-04  1.3312170303641163e-04 
 1.3486358286335495e-04  1.3662825495679056e-04  1.3841601755050235e-04  1.4022717278062367e-04 
 1.4206202673669915e-04  1.4392088951341466e-04  1.4580407526300341e-04  1.4771190224833943e-04 
 1.4964469289672404e-04  1.5160277385437704e-04  1.5358647604164069e-04  1.5559613470890604e-04 
 1.5763208949327119e-04  1.5969468447594019e-04  1.6178426824037443e-04  1.6390119393120350e-04 
 1.6604581931390765e-04  1.6821850683528095e-04  1.7041962368468573e-04  1.7264954185610841e-04 
 1.7490863821102742e-04  1.7719729454210352e-04  1.7951589763770396e-04  1.8186483934727038e-04 
 1.8424451664754256e-04  1.8665533170964779e-04  1.8909769196706969e-04  1.9157201018450481e-04 
 1.9407870452762125e-04  1.9661819863372873e-04  1.9919092168337567e-04  2.0179730847288076e-04 
 2.0443779948781484e-04  2.0711284097744417e-04  2.0982288503014726e-04  2.1256838964981919e-04 
 2.1534981883327529e-04  2.1816764264866761e-04  2.2102233731492764e-04  2.2391438528224854e-04 
 2.2684427531361994e-04  2.2981250256743065e-04  2.3281956868115137e-04  2.3586598185611221e-04 
 2.3895225694339057e-04  2.4207891553082184e-04  2.4524648603114915e-04  2.4845550377132600e-04 
 2.5170651108298835e-04  2.5500005739410956e-04  2.5833669932185516e-04  2.6171700076665265e-04 
 2.6514153300749138e-04  2.6861087479847077e-04  2.7212561246661108e-04  2.7568634001094358e-04 
 2.7929365920289806e-04  2.8294817968800367e-04  2.8665051908892061e-04  2.9040130310981955e-04 
 2.9420116564212736e-04  2.9805074887165583e-04  3.0195070338713320e-04  3.0590168829015493e-04 
 3.0990437130657333e-04  3.1395942889934491e-04  3.1806754638285422e-04  3.2222941803873378e-04 
 3.2644574723319906e-04  3.3071724653591935e-04  3.3504463784044317e-04  3.3942865248620061e-04 
 3.4387003138210126e-04  3.4836952513174962e-04  3.5292789416029822e-04  3.5754590884296244e-04 
 3.6222434963521501e-04  3.6696400720468488e-04  3.7176568256478234e-04  3.7663018721007142e-04 
 3.8155834325341527e-04  3.8655098356491473e-04  3.9160895191266550e-04  3.9673310310535653e-04 
 4.0192430313673561e-04  4.0718342933196352e-04  4.1251137049588447e-04  4.1790902706323631e-04 
 4.2337731125082563e-04  4.2891714721169527e-04  4.3452947119130799e-04  4.4021523168577439e-04 
 4.4597538960215038e-04  4.5181091842083371e-04  4.5772280436008378e-04  4.6371204654269534e-04 
 4.6977965716485230e-04  4.7592666166719098e-04  4.8215409890810289e-04  4.8846302133930366e-04 
 4.9485449518370033e-04  5.0132960061558430e-04  5.0788943194318530e-04  5.1453509779361055e-04 
 5.2126772130020637e-04  5.2808844029236975e-04  5.3499840748784378e-04  5.4199879068753132e-04 
 5.4909077297285458e-04  5.5627555290569970e-04  5.6355434473097518e-04  5.7092837858182415e-04 
 5.7839890068751810e-04  5.8596717358407372e-04  5.9363447632762372e-04  6.0140210471058039e-04 
 6.0927137148062836e-04  6.1724360656258126e-04  6.2532015728314317e-04  6.3350238859860802e-04 
 6.4179168332554302e-04  6.5018944237448634e-04  6.5869708498670471e-04  6.6731604897404882e-04 
 6.7604779096194615e-04  6.8489378663557515e-04  6.9385553098925902e-04  7.0293453857912368e-04 
 7.1213234377906010e-04  7.2145050104003899e-04  7.3089058515281573e-04  7.4045419151407357e-04 
 7.5014293639605019e-04  7.5995845721969020e-04  7.6990241283137492e-04  7.7997648378327032e-04 
 7.9018237261734524e-04  8.0052180415310240e-04  8.1099652577908067e-04  8.2160830774816597e-04 
 8.3235894347676791e-04  8.4325024984791247e-04  8.5428406751829843e-04  8.6546226122937342e-04 
 8.7678672012248026e-04  8.8825935805812533e-04  8.9988211393942502e-04  9.1165695203978701e-04 
 9.2358586233487537e-04  9.3567086083892206e-04  9.4791398994543822e-04  9.6031731877238167e-04 
 9.7288294351184569e-04  9.8561298778431883e-04  9.9850960299758206e-04  1.0115749687103011e-03 
 1.0248112930003786e-03  1.0382208128381228e-03  1.0518057944643028e-03  1.0655685337731472e-03 
 1.0795113567003550e-03  1.0936366196161867e-03  1.1079467097236946e-03  1.1224440454621664e-03 
 1.1371310769158463e-03  1.1520102862280070e-03  1.1670841880204361e-03  1.1823553298184141e-03 
 1.1978262924812518e-03  1.2134996906384610e-03  1.2293781731316344e-03  1.2454644234621063e-03 
 1.2617611602444689e-03  1.2782711376660267e-03  1.2949971459522598e-03  1.3119420118383766e-03 
 1.3291085990470427e-03  1.3464998087723550e-03  1.3641185801701494e-03  1.3819678908547270e-03 
 1.4000507574020761e-03  1.4183702358596824e-03  1.4369294222630075e-03  1.4557314531587272e-03 
 1.4747795061348112e-03  1.4940768003575500e-03  1.5136265971155967e-03  1.5334322003711333e-03 
 1.5534969573182498e-03  1.5738242589486259e-03  1.5944175406246183e-03  1.6152802826598445e-03 
 1.6364160109073650e-03  1.6578282973555556e-03  1.6795207607317912e-03  1.7014970671140122e-03 
 1.7237609305503034e-03  1.7463161136865753e-03  1.7691664284024610e-03  1.7923157364555344e-03 
 1.8157679501339535e-03  1.8395270329176502e-03  1.8635970001481610e-03  1.8879819197072378e-03 
 1.9126859127043248e-03  1.9377131541730359e-03  1.9630678737767473e-03  1.9887543565234186e-03 
 2.0147769434897701e-03  2.0411400325549348e-03  2.0678480791437143e-03  2.0949055969795459e-03 
 2.1223171588473453e-03  2.1500873973663093e-03  2.1782210057728446e-03  2.2067227387137320e-03 
 2.2355974130496758e-03  2.2648499086693630e-03  2.2944851693141774e-03  2.3245082034137046e-03 
 2.3549240849321611e-03  2.3857379542259181e-03  2.4169550189122261e-03  2.4485805547493178e-03 
 2.4806199065280201e-03  2.5130784889750412e-03  2.5459617876680690e-03  2.5792753599628480e-03 
 2.6130248359323878e-03  2.6472159193184500e-03  2.6818543884955070e-03  2.7169460974472925e-03 
 2.7524969767561409e-03  2.7885130346052707e-03  2.8250003577941795e-03  2.8619651127673291e-03 
 2.8994135466562910e-03  2.9373519883355245e-03  2.9757868494919661e-03  3.0147246257086328e-03 
 3.0541718975623799e-03  3.0941353317360401e-03  3.1346216821451054e-03  3.1756377910791556e-03 
 3.2171905903582228e-03  3.2592871025042863e-03  3.3019344419280938e-03  3.3451398161315083e-03 
 3.3889105269256053e-03  3.4332539716646878e-03  3.4781776444964573e-03  3.5236891376285466e-03 
 3.5697961426116162e-03  3.6165064516392475e-03  3.6638279588648410e-03  3.7117686617357502e-03 
 3.7603366623448582e-03  3.8095401687998679e-03  3.8593874966104790e-03  3.9098870700937328e-03 
 3.9610474237977414e-03  4.0128772039440480e-03  4.0653851698888577e-03  4.1185801956033878e-03 
 4.1724712711735988e-03  4.2270675043195186e-03  4.2823781219344988e-03  4.3384124716445600e-03 
 4.3951800233881710e-03  4.4526903710166875e-03  4.5109532339157399e-03  4.5699784586478286e-03 
 4.6297760206164204e-03  4.6903560257518153e-03  4.7517287122190582e-03  4.8139044521482415e-03 
 4.8768937533873952e-03  4.9407072612783504e-03  5.0053557604558237e-03  5.0708501766700441e-03 
 5.1372015786332360e-03  5.2044211798902536e-03  5.2725203407137031e-03  5.3415105700238370e-03 
 5.4114035273336164e-03  5.4822110247191806e-03  5.5539450288161138e-03  5.6266176628418435e-03 
 5.7002412086444880e-03  5.7748281087785193e-03  5.8503909686075826e-03  5.9269425584348428e-03 
 6.0044958156611700e-03  6.0830638469716253e-03  6.1626599305504987e-03  6.2432975183253619e-03 
 6.3249902382404742e-03  6.4077518965599380e-03  6.4915964802009889e-03  6.5765381590978233e-03 
 6.6625912885963472e-03  6.7497704118802499e-03  6.8380902624288658e-03  6.9275657665071495e-03 
 7.0182120456882494e-03  7.1100444194090954e-03  7.2030784075594123e-03  7.2973297331046325e-03 
 7.3928143247430980e-03  7.4895483195980637e-03  7.5875480659448862e-03  7.6868301259739504e-03 
 7.7874112785897044e-03  7.8893085222463324e-03  7.9925390778205346e-03  8.0971203915219080e-03 
 8.2030701378413770e-03  8.3104062225382424e-03  8.4191467856662948e-03  8.5293102046394998e-03 
 8.6409150973378746e-03  8.7539803252539121e-03  8.8685249966802375e-03  8.9845684699389507e-03 
 9.1021303566532225e-03  9.2212305250617219e-03  9.3418891033763760e-03  9.4641264831841123e-03 
 9.5879633228930315e-03  9.7134205512238014e-03  9.8405193707466077e-03  9.9692812614644594e-03 
 1.0099727984443351e-02  1.0231881585489943e-02  1.0365764398877353e-02  1.0501399051119693e-02 
 1.0638808464796029e-02  1.0778015862424299e-02  1.0919044770386039e-02  1.1061919022902357e-02 
 1.1206662766061984e-02  1.1353300461902015e-02  1.1501856892542062e-02  1.1652357164372480e-02 
 1.1804826712297415e-02  1.1959291304033368e-02  1.2115777044463961e-02  1.2274310380051792e-02 
 1.2434918103307898e-02  1.2597627357319769e-02  1.2762465640338600e-02  1.2929460810426553e-02 
 1.3098641090164833e-02  1.3270035071423384e-02  1.3443671720192986e-02  1.3619580381480527e-02 
 1.3797790784268456e-02  1.3978333046539006e-02  1.4161237680364204e-02  1.4346535597062501e-02 
 1.4534258112422843e-02  1.4724436951997124e-02  1.4917104256461877e-02  1.5112292587050139e-02 
 1.5310034931054314e-02  1.5510364707401202e-02  1.5713315772299809e-02  1.5918922424963150e-02 
 1.6127219413404885e-02  1.6338241940311825e-02  1.6552025668993272e-02  1.6768606729408206e-02 
 1.6988021724271329e-02  1.7210307735238975e-02  1.7435502329176070e-02  1.7663643564504981e-02 
 1.7894769997637474e-02  1.8128920689490850e-02  1.8366135212089338e-02  1.8606453655251844e-02 
 1.8849916633367249e-02  1.9096565292258335e-02  1.9346441316135467e-02  1.9599586934641432e-02 
 1.9856044929988263e-02  2.0115858644187565e-02  2.0379071986375431e-02  2.0645729440233154e-02 
 2.0915876071505107e-02  2.1189557535614956e-02  2.1466820085381540e-02  2.1747710578835643e-02 
 2.2032276487139225e-02  2.2320565902608079e-02  2.2612627546839584e-02  2.2908510778946744e-02 
 2.3208265603900019e-02  2.3511942680978268e-02  2.3819593332330302e-02  2.4131269551648456e-02 
 2.4447024012955575e-02  2.4766910079507171e-02  2.5090981812809835e-02  2.5419293981757837e-02 
 2.5751902071889130e-02  2.6088862294762587e-02  2.6430231597457880e-02  2.6776067672199651e-02 
 2.7126428966107681e-02  2.7481374691074485e-02  2.7840964833772405e-02  2.8205260165791429e-02 
 2.8574322253909712e-02  2.8948213470498564e-02  2.9326997004063472e-02  2.9710736869923163e-02 
 3.0099497921028295e-02  3.0493345858921828e-02  3.0892347244842598e-02  3.1296569510974530e-02 
 3.1706080971842673e-02  3.2120950835858607e-02  3.2541249217016760e-02  3.2967047146743915e-02 
 3.3398416585903624e-02  3.3835430436957831e-02  3.4278162556287496e-02  3.4726687766674494e-02 
 3.5181081869946930e-02  3.5641421659789771e-02  3.6107784934723143e-02  3.6580250511250502e-02 
 3.7058898237178811e-02  3.7543809005112956e-02  3.8035064766126864e-02  3.8532748543613410e-02 
 3.9036944447315473e-02  3.9547737687540829e-02  4.0065214589562817e-02  4.0589462608209538e-02 
 4.1120570342643888e-02  4.1658627551337077e-02  4.2203725167238013e-02  4.2755955313141157e-02 
 4.3315411317255574e-02  4.3882187728977437e-02  4.4456380334869344e-02  4.5038086174848335e-02 
 4.5627403558585876e-02  4.6224432082122451e-02  4.6829272644699528e-02  4.7442027465811755e-02 
 4.8062800102482317e-02  4.8691695466764356e-02  4.9328819843471185e-02  4.9974280908138928e-02 
 5.0628187745223756e-02  5.1290650866537522e-02  5.1961782229924446e-02  5.2641695258182290e-02 
 5.3330504858231084e-02  5.4028327440532695e-02  5.4735280938764445e-02  5.5451484829750070e-02 
 5.6177060153651814e-02  5.6912129534426356e-02  5.7656817200548598e-02  5.8411249006006534e-02 
 5.9175552451570912e-02  5.9949856706343146e-02  6.0734292629585206e-02  6.1528992792835212e-02 
 6.2334091502312096e-02  6.3149724821614059e-02  6.3976030594713310e-02  6.4813148469252235e-02 
 6.5661219920144009e-02  6.6520388273482348e-02  6.7390798730763854e-02  6.8272598393427489e-02 
 6.9165936287715002e-02  7.0070963389856758e-02  7.0987832651587063e-02  7.1916699025993402e-02 
 7.2857719493703968e-02  7.3811053089417253e-02  7.4776860928780109e-02  7.5755306235616077e-02 
 7.6746554369510847e-02  7.7750772853758268e-02  7.8768131403672337e-02  7.9798801955269394e-02 
 8.0842958694325756e-02  8.1900778085815543e-02  8.2972438903733597e-02  8.4058122261308807e-02 
 8.5158011641612644e-02  8.6272292928568223e-02  8.7401154438365131e-02  8.8544786951285329e-02 
 8.9703383743945445e-02  9.0877140621961033e-02  9.2066255953038273e-02  9.3270930700497995e-02 
 9.4491368457239960e-02  9.5727775480149782e-02  9.6980360724957138e-02  9.8249335881549646e-02 
 9.9534915409749042e-02  1.0083731657555542e-01  1.0215675948786564e-01  1.0349346713567227e-01 
 1.0484766542574930e-01  1.0621958322083087e-01  1.0760945237828964e-01  1.0901750778932125e-01 
 1.1044398741864146e-01  1.1188913234470281e-01  1.1335318680043738e-01  1.1483639821453276e-01 
 1.1633901725324834e-01  1.1786129786277763e-01  1.1940349731216701e-01  1.2096587623679406e-01 
 1.2254869868241557e-01  1.2415223214979219e-01  1.2577674763989644e-01  1.2742251969971266e-01 
 1.2908982646863607e-01  1.3077894972547893e-01  1.3249017493609194e-01  1.3422379130160861e-01 
 1.3598009180732087e-01  1.3775937327219431e-01  1.3956193639903139e-01  1.4138808582529083e-01 
 1.4323813017457207e-01  1.4511238210877339e-01  1.4701115838093290e-01  1.4893477988875928e-01 
 1.5088357172886604e-01  1.5285786325171249e-01  1.5485798811726501e-01  1.5688428435138629e-01 
 1.5893709440296275e-01  1.6101676520177896e-01  1.6312364821714975e-01  1.6525809951731932e-01 
 1.6742047982963756e-01  1.6961115460152396e-01  1.7183049406222897e-01  1.7407887328540370e-01 
 1.7635667225248822e-01  1.7866427591692935e-01  1.8100207426923867e-01  1.8337046240290197e-01 
 1.8576984058115112e-01  1.8820061430460835e-01  1.9066319437981877e-01  1.9315799698867619e-01 
 1.9568544375875938e-01  1.9824596183458812e-01  2.0083998394981151e-01  2.0346794850034097e-01 
 2.0613029961844037e-01  2.0882748724778541e-01  2.1155996721950487e-01  2.1432820132921765e-01 
 2.1713265741507692e-01  2.1997380943683606e-01  2.2285213755594893e-01  2.2576812821671849e-01 
 2.2872227422850661e-01  2.3171507484902049e-01  2.3474703586868859e-01  2.3781866969613868e-01 
 2.4093049544479891e-01  2.4408303902062717e-01  2.4727683321099120e-01  2.5051241777471067e-01 
 2.5379033953327779e-01  2.5711115246327165e-01  2.6047541778998118e-01  2.6388370408225398e-01 
 2.6733658734858534e-01  2.7083465113446559e-01  2.7437848662100023e-01  2.7796869272482116e-01 
 2.8160587619930499e-01  2.8529065173711571e-01  2.8902364207408932e-01  2.9280547809447771e-01 
 2.9663679893756995e-01  3.0051825210570637e-01  3.0445049357371123e-01  3.0843418789975163e-01 
 3.1247000833765032e-01  3.1655863695066688e-01  3.2070076472676834e-01  3.2489709169540743e-01 
 3.2914832704582953e-01  3.3345518924692730e-01  3.3781840616866332e-01  3.4223871520508242e-01 
 3.4671686339893237e-01  3.5125360756791646e-01  3.5584971443259705e-01  3.6050596074597352e-01 
 3.6522313342475510e-01  3.7000202968235185e-01  3.7484345716360629e-01  3.7974823408128433e-01 
 3.8471718935435967e-01  3.8975116274809996e-01  3.9485100501599019e-01  4.0001757804351173e-01 
 4.0525175499380317e-01  4.1055442045522694e-01  4.1592647059086679e-01  4.2136881328998183e-01 
 4.2688236832144139e-01  4.3246806748916861e-01  4.3812685478961738e-01  4.4385968657130986e-01 
 4.4966753169646179e-01  4.5555137170472282e-01  4.6151220097905810e-01  4.6755102691380268e-01 
 4.7366887008491310e-01  4.7986676442244486e-01  4.8614575738529325e-01  4.9250691013821374e-01 
 4.9895129773116165e-01  5.0548000928097858e-01  5.1209414815545518e-01  5.1879483215980371e-01 
 5.2558319372556916e-01  5.3246038010201302e-01  5.3942755355000138e-01  5.4648589153842941e-01 
 5.5363658694321682e-01  5.6088084824890616e-01  5.6821989975290033e-01  5.7565498177237107e-01 
 5.8318735085387574e-01  5.9081827998571723e-01  5.9854905881308185e-01  6.0638099385598965e-01 
 6.1431540873010448e-01  6.2235364437042473e-01  6.3049705925790556e-01  6.3874702964904495e-01 
 6.4710494980847466e-01  6.5557223224459449e-01  6.6415030794828889e-01  6.7284062663476862e-01 
 6.8164465698857535e-01  6.9056388691179349e-01  6.9959982377550844e-01  7.0875399467455680e-01 
 7.1802794668560821e-01  7.2742324712862538e-01  7.3694148383174507e-01  7.4658426539962430e-01 
 7.5635322148530015e-01  7.6625000306559965e-01  7.7627628272016624e-01  7.8643375491412526e-01 
 7.9672413628445327e-01  8.0714916593009367e-01  8.1771060570586962e-01  8.2841024052023993e-01 
 8.3924987863695477e-01  8.5023135198065525e-01  8.6135651644647326e-01  8.7262725221368243e-01 
 8.8404546406345319e-01  8.9561308170076426e-01  9.0733206008052869e-01  9.1920437973798474e-01 
 9.3123204712341179e-01  9.4341709494122505e-01  9.5576158249350907e-01  9.6826759602803791e-01 
 9.8093724909086588e-01  9.9377268288351583e-01  1.0067760666248482e+00  1.0199495979176647e+00 
 1.0332955031201079e+00  1.0468160377219216e+00  1.0605134867256338e+00  1.0743901650327274e+00 
 1.0884484178348641e+00  1.1026906210102274e+00  1.1171191815250516e+00  1.1317365378404054e+00 
 1.1465451603242967e+00  1.1615475516691711e+00  1.1767462473148729e+00  1.1921438158771411e+00 
 1.2077428595817123e+00  1.2235460147040955e+00  1.2395559520151216e+00  1.2557753772323013e+00 
 1.2722070314771001e+00  1.2888536917381945e+00  1.3057181713407890e+00  1.3228033204220755e+00 
 1.3401120264129134e+00  1.3576472145258114e+00  1.3754118482492959e+00  1.3934089298487478e+00 
 1.4116415008737921e+00  1.4301126426723274e+00  1.4488254769112809e+00  1.4677831661041769e+00 
 1.4869889141456107e+00  1.5064459668527126e+00  1.5261576125137024e+00  1.5461271824436071e+00 
 1.5663580515472768e+00  1.5868536388897421e+00  1.6076174082740446e+00  1.6286528688266306e+00 
 1.6499635755903992e+00  1.6715531301255162e+00  1.6934251811180823e+00  1.7155834249967730e+00 
 1.7380316065575425e+00  1.7607735195965040e+00  1.7838130075510883e+00  1.8071539641495962e+00 
 1.8308003340692471e+00  1.8547561136028372e+00  1.8790253513341251e+00  1.9036121488220508e+00 
 1.9285206612939119e+00  1.9537550983475940e+00  1.9793197246630230e+00  2.0052188607228922e+00 
 2.0314568835428393e+00  2.0580382274111679e+00  2.0849673846382597e+00  2.1122489063157794e+00 
 2.1398874030858233e+00  2.1678875459201272e+00  2.1962540669094741e+00  2.2249917600634257e+00 
 2.2541054821205240e+00  2.2836001533690893e+00  2.3134807584787631e+00  2.3437523473429285e+00 
 2.3744200359321521e+00  2.4054890071587973e+00  2.4369645117529530e+00  2.4688518691498027e+00 
 2.5011564683886442e+00  2.5338837690236380e+00  2.5670393020464854e+00  2.6006286708211803e+00 
 2.6346575520309923e+00  2.6691316966378369e+00  2.7040569308542053e+00  2.7394391571278049e+00 
 2.7752843551390893e+00  2.8115985828118375e+00  2.8483879773369574e+00  2.8856587562096863e+00 
 2.9234172182803615e+00  2.9616697448189422e+00  3.0004228005934572e+00  3.0396829349625696e+00 
 3.0794567829824353e+00  3.1197510665280253e+00  3.1605725954291670e+00  3.2019282686214052e+00 
 3.2438250753119391e+00  3.2862700961608184e+00  3.3292705044775901e+00  3.3728335674336041e+00 
 3.4169666472901841e+00  3.4616772026428677e+00  3.5069727896819245e+00  3.5528610634693720e+00 
 3.5993497792326985e+00  3.6464467936755165e+00  3.6941600663053618e+00  3.7424976607788705e+00 
 3.7914677462645581e+00  3.8410785988234242e+00  3.8913386028076369e+00  3.9422562522774793e+00 
 3.9938401524369080e+00  4.0460990210878247e+00  4.0990416901034123e+00  4.1526771069207431e+00 
 4.2070143360529162e+00  4.2620625606209837e+00  4.3178310839059177e+00  4.3743293309208875e+00 
 4.4315668500041090e+00  4.4895533144325395e+00  4.5482985240566807e+00  4.6078124069567776e+00 
 4.6681050211206898e+00  4.7291865561437127e+00  4.7910673349506450e+00  4.8537578155403880e+00 
 4.9172685927533797e+00  4.9816104000621131e+00  5.0467941113851706e+00  5.1128307429249107e+00 
 5.1797314550292368e+00  5.2475075540777256e+00  5.3161704943924288e+00  5.3857318801736840e+00 
 5.4562034674612523e+00  5.5275971661211125e+00  5.5999250418582642e+00  5.6731993182558522e+00 
 5.7474323788409896e+00  5.8226367691775955e+00  5.8988251989866320e+00  5.9760105442940716e+00 
 6.0542058496069791e+00  6.1334243301180669e+00  6.2136793739390983e+00  6.2949845443634720e+00 
 6.3773535821585163e+00  6.4608004078876640e+00  6.5453391242630747e+00  6.6309840185290261e+00 
 6.7177495648764918e+00  6.8056504268893150e+00  6.8947014600223904e+00  6.9849177141122656e+00 
 7.0763144359206054e+00  7.1689070717109269e+00  7.2627112698590635e+00  7.3577428834977594e+00 
 7.4540179731959055e+00  7.5515528096728071e+00  7.6503638765479689e+00  7.7504678731268735e+00 
 7.8518817172232138e+00  7.9546225480179897e+00  8.0587077289561524e+00  8.1641548506810118e+00 
 8.2709817340071137e+00  8.3792064329320013e+00  8.4888472376873754e+00  8.5999226778301967e+00 
 8.7124515253742167e+00  8.8264527979625047e+00  8.9419457620814597e+00  9.0589499363169015e+00 
 9.1774850946527611e+00  9.2975712698129165e+00  9.4192287566467883e+00  9.5424781155592111e+00 
 9.6673401759851849e+00  9.7938360399101043e+00  9.9219870854360632e+00  1.0051814970394734e+01 
 1.0183341636007690e+01  1.0316589310594473e+01  1.0451580513329226e+01  1.0588338058046503e+01 
 1.0726885057096860e+01  1.0867244925252891e+01  1.1009441383666383e+01  1.1153498463877249e+01 
 1.1299440511874918e+01  1.1447292192212853e+01  1.1597078492176937e+01  1.1748824726008365e+01 
 1.1902556539181830e+01  1.2058299912739653e+01  1.2216081167682647e+01  1.2375926969418437e+01 
 1.2537864332267983e+01  1.2701920624030990e+01  1.2868123570611260e+01  1.3036501260702341e+01 
 1.3207082150534614e+01  1.3379895068684460e+01  1.3554969220946360e+01  1.3732334195268738e+01 
 1.3912019966754398e+01  1.4094056902726395e+01  1.4278475767860172e+01  1.4465307729382872e+01 
 1.4654584362340664e+01  1.4846337654935025e+01  1.5040600013928788e+01  1.5237404270122990e+01 
 1.5436783683905336e+01  1.5638771950871332e+01  1.5843403207518785e+01  1.6050712037017139e+01 
 1.6260733475052000e+01  1.6473503015746264e+01  1.6689056617658718e+01  1.6907430709861128e+01 
 1.7128662198094823e+01  1.7352788471007866e+01  1.7579847406473828e+01  1.7809877377993221e+01 
 1.8042917261178729e+01  1.8279006440325261e+01  1.8518184815066011e+01  1.8760492807115579e+01 
 1.9005971367101342e+01  1.9254661981484187e+01  1.9506606679569870e+01  1.9761848040612040e+01 
 2.0020429201008152e+01  2.0282393861589792e+01  2.0547786295008098e+01  2.0816651353215985e+01 
 2.1089034475048205e+01  2.1364981693900649e+01  2.1644539645510090e+01  2.1927755575835715e+01 
 2.2214677349043839e+01  2.2505353455597032e+01  2.2799833020449142e+01  2.3098165811347513e+01 
 2.3400402247243871e+01  2.3706593406815234e+01  2.4016791037096336e+01  2.4331047562224992e+01 
 2.4649416092301912e+01  2.4971950432366469e+01  2.5298705091489708e+01  2.5629735291986780e+01 
 2.5965096978749443e+01  2.6304846828700956e+01  2.6649042260374603e+01  2.6997741443617553e+01 
 2.7351003309421706e+01  2.7708887559883191e+01  2.8071454678292127e+01  2.8438765939354468e+01 
 2.8810883419547579e+01  2.9187870007611281e+01  2.9569789415176224e+01  2.9956706187531292e+01 
 3.0348685714531911e+01  3.0745794241651090e+01  3.1148098881175073e+01  3.1555667623545528e+01 
 3.1968569348849840e+01  3.2386873838462392e+01  3.2810651786837546e+01  3.3239974813457202e+01 
 3.3674915474934679e+01  3.4115547277276981e+01  3.4561944688307442e+01  3.5014183150251007e+01 
 3.5472339092484098e+01  3.5936489944451424e+01  3.6406714148751654e+01  3.6883091174394615e+01 
 3.7365701530231249e+01  3.7854626778560601e+01  3.8349949548913081e+01  3.8851753552016049e+01 
 3.9360123593940095e+01  3.9875145590432560e+01  4.0396906581436518e+01  4.0925494745801146e+01 
 4.1460999416184592e+01  4.2003511094150412e+01  4.2553121465463704e+01  4.3109923415585065e+01 
 4.3674011045369603e+01  4.4245479686969020e+01  4.4824425919944218e+01  4.5410947587586193e+01 
 4.6005143813453081e+01  4.6607115018120972e+01  4.7216962936156534e+01  4.7834790633309076e+01 