  <PP_INFO>

############################################################
#    Opium Parameter File                                  #
############################################################
#-----------------------------------------------------------
#Command line   : opium Br Br.log ae ps nl tc2 ke upf rpt 
 
#Opium version  : 4.1 
#Compile Host   : andes-login5.olcf.ornl.gov 
#Compile OS     : Linux 4.18.0-348.12.2.el8_5.x86_64 x86_64 
#Compile Date   : Thu Jun 30 15:38:05 EDT 2022 
#-----------------------------------------------------------
#Execution Host : andes-login5.olcf.ornl.gov 
#Execution Date : Thu Jun 30 16:17:57 2022
 
#-----------------------------------------------------------
############################################################
[Atom]
Br
11
100   2.00 -
200   2.00 -
210   6.00 -
300   2.00 -
310   6.00 -
320  10.00 -
400   2.00 -
410   3.50 -
420   0.50 -
500   0.00 -
510   0.00 -

[Pseudo]
5 -1 -1 -1 -1 -1
g

[Gaussinfo]
7 4
2 2 2 4
2 4.971806723636273 85.8843473075379
2 2.042687217782981 4.62125463404037
2 4.711839367430644 55.3617154916148
2 2.384292508891309 11.0314096124871
2 3.412863477885576 26.4104098578207
2 1.530284946887900 5.46873883641966
1 3.665770450000000 7.00000000000000
3 5.293022720000000 25.6603931500000
2 3.176376149835153 13.0402619252684
2 2.897543523376016 -21.908838668870

[KBdesign]
s

[Relativity]
nrl

[XC]
pbe

[Configs]
15

400   2.00 -
410   4.50 -
420   0.50 -
500   0.00 -
510   0.00 -

400   1.00 -
410   5.50 -
420   0.00 -
500   0.00 -
510   0.00 -

400   2.00 -
410   4.00 -
420   1.00 -
500   0.00 -
510   0.00 -

400   2.00 -
410   4.00 -
420   0.00 -
500   1.00 -
510   0.00 -

400   2.00 -
410   4.00 -
420   0.00 -
500   0.00 -
510   0.00 -

400   1.00 -
410   5.00 -
420   0.00 -
500   0.00 -
510   0.00 -

400   2.00 -
410   3.00 -
420   1.00 -
500   0.00 -
510   0.00 -

400   2.00 -
410   3.00 -
420   0.00 -
500   1.00 -
510   0.00 -

400   2.00 -
410   3.00 -
420   0.00 -
500   0.00 -
510   0.00 -

400   2.00 -
410   2.00 -
420   0.00 -
500   0.00 -
510   0.00 -

400   2.00 -
410   1.00 -
420   0.00 -
500   0.00 -
510   0.00 -

400   2.00 -
410   0.00 -
420   1.00 -
500   0.00 -
510   0.00 -

400   2.00 -
410   0.00 -
420   0.00 -
500   1.00 -
510   0.00 -

400   2.00 -
410   0.00 -
420   0.00 -
500   0.00 -
510   0.00 -

400   1.00 -
410   0.00 -
420   0.00 -
500   0.00 -
510   0.00 -

############################################################
  </PP_INFO>



<PP_HEADER>
   0         Version Number
   Br        Element
   NC        Norm - Conserving pseudopotential
    F      Nonlinear Core Correction
SLA  PW   PBE  PBE     PBE  Exchange-Correlation functional
 7          Z valence
 0          Total energy
 0.000000   0.000000     Suggested cutoff for wfc and rho
 2           Max angular momentum component
 1167           Number of points in mesh
 3  2     Number of Wavefuncitons, Number of Projectors
 Wavefunctions         nl  l   occ
                       S  0  2.000000
                       P  1  3.500000
                       D  2  0.500000
</PP_HEADER>
<PP_MESH>
  <PP_R>
 3.0571070873287974e-05  3.0971089280712271e-05  3.1376341875939192e-05  3.1786897147621882e-05 
 3.2202824480578408e-05  3.2624194167518013e-05  3.3051077420920639e-05  3.3483546385072167e-05 
 3.3921674148256854e-05  3.4365534755109464e-05  3.4815203219128975e-05  3.5270755535356073e-05 
 3.5732268693216463e-05  3.6199820689532260e-05  3.6673490541703685e-05  3.7153358301063096e-05 
 3.7639505066403966e-05  3.8132012997686722e-05  3.8630965329923962e-05  3.9136446387247403e-05 
 3.9648541597158814e-05  4.0167337504967513e-05  4.0692921788416697e-05  4.1225383272501246e-05 
 4.1764811944479216e-05  4.2311298969080099e-05  4.2864936703911737e-05  4.3425818715069032e-05 
 4.3994039792946823e-05  4.4569695968259694e-05  4.5152884528271392e-05  4.5743704033236595e-05 
 4.6342254333057901e-05  4.6948636584160499e-05  4.7562953266588119e-05  4.8185308201322218e-05 
 4.8815806567828043e-05  4.9454554921830165e-05  5.0101661213320703e-05  5.0757234804803099e-05 
 5.1421386489774674e-05  5.2094228511450857e-05  5.2775874581734774e-05  5.3466439900434689e-05 
 5.4166041174733080e-05  5.4874796638910421e-05  5.5592826074327058e-05  5.6320250829666570e-05 
 5.7057193841443926e-05  5.7803779654782136e-05  5.8560134444460632e-05  5.9326386036238994e-05 
 6.0102663928460015e-05  6.0889099313935086e-05  6.1685825102116164e-05  6.2492975941557749e-05 
 6.3310688242672761e-05  6.4139100200786352e-05  6.4978351819491211e-05  6.5828584934308245e-05 
 6.6689943236657601e-05  6.7562572298142458e-05  6.8446619595151175e-05  6.9342234533781028e-05 
 7.0249568475088330e-05  7.1168774760668673e-05  7.2100008738572153e-05  7.3043427789557438e-05 
 7.3999191353689669e-05  7.4967460957285826e-05  7.5948400240213570e-05  7.6942174983546448e-05 
 7.7948953137581373e-05  7.8968904850222602e-05  8.0002202495737149e-05  8.1049020703886443e-05 
 8.2109536389439304e-05  8.3183928782070533e-05  8.4272379456651724e-05  8.5375072363937503e-05 
 8.6492193861653738e-05  8.7623932745992366e-05  8.8770480283518487e-05  8.9932030243494875e-05 
 9.1108778930629343e-05  9.2300925218250803e-05  9.3508670581919271e-05  9.4732219133475851e-05 
 9.5971777655537750e-05  9.7227555636445541e-05  9.8499765305666882e-05  9.9788621669663855e-05 
 1.0109434254822957e-04  1.0241714861130026e-04  1.0375726341624908e-04  1.0511491344566746e-04 
 1.0649032814564184e-04  1.0788373996453009e-04  1.0929538439224610e-04  1.1072550000005798e-04 
 1.1217432848090728e-04  1.1364211469025562e-04  1.1512910668746580e-04  1.1663555577772461e-04 
 1.1816171655451375e-04  1.1970784694263701e-04  1.2127420824180975e-04  1.2286106517081968e-04 
 1.2446868591226470e-04  1.2609734215787642e-04  1.2774730915443669e-04  1.2941886575029503e-04 
 1.3111229444249468e-04  1.3282788142451497e-04  1.3456591663463921e-04  1.3632669380495458e-04 
 1.3811051051099371e-04  1.3991766822202557e-04  1.4174847235200457e-04  1.4360323231118609e-04 
 1.4548226155841780e-04  1.4738587765411473e-04  1.4931440231392789e-04  1.5126816146311493e-04 
 1.5324748529162198e-04  1.5525270830988713e-04  1.5728416940537313e-04  1.5934221189984018e-04 
 1.6142718360736817e-04  1.6353943689313813e-04  1.6567932873298285e-04  1.6784722077371614e-04 
 1.7004347939425279e-04  1.7226847576752702e-04  1.7452258592322160e-04  1.7680619081131784e-04 
 1.7911967636647700e-04  1.8146343357326429e-04  1.8383785853222598e-04  1.8624335252683148e-04 
 1.8868032209129124e-04  1.9114917907926202e-04  1.9365034073345053e-04  1.9618422975612956e-04 
 1.9875127438057481e-04  2.0135190844343767e-04  2.0398657145806448e-04  2.0665570868877545e-04 
 2.0935977122611563e-04  2.1209921606308928e-04  2.1487450617239430e-04  2.1768611058466456e-04 
 2.2053450446773764e-04  2.2342016920695918e-04  2.2634359248653834e-04  2.2930526837196740e-04 
 2.3230569739351997e-04  2.3534538663084212e-04  2.3842484979864968e-04  2.4154460733354742e-04 
 2.4470518648198422e-04  2.4790712138935837e-04  2.5115095319029016e-04  2.5443723010007478e-04 
 2.5776650750733172e-04  2.6113934806786638e-04  2.6455632179976136e-04  2.6801800617971025e-04 
 2.7152498624061222e-04  2.7507785467044459e-04  2.7867721191242821e-04  2.8232366626650373e-04 
 2.8601783399213594e-04  2.8976033941246294e-04  2.9355181501980823e-04  2.9739290158257363e-04 
 3.0128424825353033e-04  3.0522651267952760e-04  3.0922036111263656e-04  3.1326646852274765e-04 
 3.1736551871164363e-04  3.2151820442856248e-04  3.2572522748727448e-04  3.2998729888468909e-04 
 3.3430513892101691e-04  3.3867947732150100e-04  3.4311105335974230e-04  3.4760061598263886e-04 
 3.5214892393695965e-04  3.5675674589757419e-04  3.6142486059736112e-04  3.6615405695881504e-04 
 3.7094513422737706e-04  3.7579890210650890e-04  3.8071618089453440e-04  3.8569780162327249e-04 
 3.9074460619848328e-04  3.9585744754215123e-04  4.0103718973663290e-04  4.0628470817068732e-04 
 4.1160088968741990e-04  4.1698663273415917e-04  4.2244284751429901e-04  4.2797045614112369e-04 
 4.3357039279364726e-04  4.3924360387449243e-04  4.4499104816983465e-04  4.5081369701143934e-04 
 4.5671253444081925e-04  4.6268855737553955e-04  4.6874277577769991e-04  4.7487621282461980e-04 
 4.8108990508175848e-04  4.8738490267789635e-04  4.9376226948261051e-04  5.0022308328606874e-04 
 5.0676843598118171e-04  5.1339943374813333e-04  5.2011719724132923e-04  5.2692286177878742e-04 
 5.3381757753401390e-04  5.4080250973038112e-04  5.4787883883805491e-04  5.5504776077349739e-04 
 5.6231048710157750e-04  5.6966824524033125e-04  5.7712227866839620e-04  5.8467384713516320e-04 
 5.9232422687367607e-04  6.0007471081631968e-04  6.0792660881332696e-04  6.1588124785414778e-04 
 6.2393997229171340e-04  6.3210414406963326e-04  6.4037514295237020e-04  6.4875436675842070e-04 
 6.5724323159655179e-04  6.6584317210512491e-04  6.7455564169455499e-04  6.8338211279293912e-04 
 6.9232407709490080e-04  7.0138304581369006e-04  7.1056054993658114e-04  7.1985814048361419e-04 
 7.2927738876972113e-04  7.3881988667028119e-04  7.4848724689015095e-04  7.5828110323621718e-04 
 7.6820311089351287e-04  7.7825494670494711e-04  7.8843830945469703e-04  7.9875492015530378e-04 
 8.0920652233853086e-04  8.1979488235002290e-04  8.3052178964782356e-04  8.4138905710479659e-04 
 8.5239852131500763e-04  8.6355204290411186e-04  8.7485150684380429e-04  8.8629882277038502e-04 
 8.9789592530749025e-04  9.0964477439305200e-04  9.2154735561052843e-04  9.3360568052447553e-04 
 9.4582178702050238e-04  9.5819773964968323e-04  9.7073562997746811e-04  9.8343757693716404e-04 
 9.9630572718803923e-04  1.0093422554781132e-03  1.0225493650116947e-03  1.0359292878217297e-03 
 1.0494842851470189e-03  1.0632166478143714e-03  1.0771286966257635e-03  1.0912227827505558e-03 
 1.1055012881228483e-03  1.1199666258440344e-03  1.1346212405906164e-03  1.1494676090273667e-03 
 1.1645082402258866e-03  1.1797456760886474e-03  1.1951824917785757e-03  1.2108212961542645e-03 
 1.2266647322108752e-03  1.2427154775268101e-03  1.2589762447162308e-03  1.2754497818874932e-03 
 1.2921388731075884e-03  1.3090463388726545e-03  1.3261750365846474e-03  1.3435278610342473e-03 
 1.3611077448900885e-03  1.3789176591943839e-03  1.3969606138650411e-03  1.4152396582043430e-03 
 1.4337578814142885e-03  1.4525184131186752e-03  1.4715244238920134e-03  1.4907791257953605e-03 
 1.5102857729191650e-03  1.5300476619332188e-03  1.5500681326438010e-03  1.5703505685581119e-03 
 1.5908983974560963e-03  1.6117150919697423e-03  1.6328041701699689e-03  1.6541691961611859e-03 
 1.6758137806836370e-03  1.6977415817236224e-03  1.7199563051317100e-03  1.7424617052490257e-03 
 1.7652615855417561e-03  1.7883597992439362e-03  1.8117602500086578e-03  1.8354668925677953e-03 
 1.8594837334003661e-03  1.8838148314096323e-03  1.9084642986090686e-03  1.9334363008173007e-03 
 1.9587350583621355e-03  1.9843648467938115e-03  2.0103299976075763e-03  2.0366348989757166e-03 
 2.0632839964891720e-03  2.0902817939088495e-03  2.1176328539267708e-03  2.1453417989371767e-03 
 2.1734133118177256e-03  2.2018521367209039e-03  2.2306630798758090e-03  2.2598510104004073e-03 
 2.2894208611244269e-03  2.3193776294230199e-03  2.3497263780613282e-03  2.3804722360501055e-03 
 2.4116203995125291e-03  2.4431761325623622e-03  2.4751447681935924e-03  2.5075317091817306e-03 
 2.5403424289968889e-03  2.5735824727288084e-03  2.6072574580239941e-03  2.6413730760351112e-03 
 2.6759350923828014e-03  2.7109493481300888e-03  2.7464217607695344e-03  2.7823583252232970e-03 
 2.8187651148563041e-03  2.8556482825026555e-03  2.8930140615054693e-03  2.9308687667703314e-03 
 2.9692187958325279e-03  3.0080706299382490e-03  3.0474308351399280e-03  3.0873060634059291e-03 
 3.1277030537447295e-03  3.1686286333438493e-03  3.2100897187236467e-03  3.2520933169062323e-03 
 3.2946465265996719e-03  3.3377565393976840e-03  3.3814306409950378e-03  3.4256762124188519e-03 
 3.4705007312760090e-03  3.5159117730168762e-03  3.5619170122155931e-03  3.6085242238670817e-03 
 3.6557412847010402e-03  3.7035761745131315e-03  3.7520369775135842e-03  3.8011318836934484e-03 
 3.8508691902087184e-03  3.9012573027825785e-03  3.9523047371259751e-03  4.0040201203768132e-03 
 4.0564121925579502e-03  4.1094898080542832e-03  4.1632619371091608e-03  4.2177376673403757e-03 
 4.2729262052759957e-03  4.3288368779102844e-03  4.3854791342799945e-03  4.4428625470612580e-03 
 4.5009968141874182e-03  4.5598917604879842e-03  4.6195573393490548e-03  4.6800036343954696e-03 
 4.7412408611949590e-03  4.8032793689846013e-03  4.8661296424198728e-03  4.9298023033465766e-03 
 4.9943081125959476e-03  5.0596579718032832e-03  5.1258629252503296e-03  5.1929341617317926e-03 
 5.2608830164462749e-03  5.3297209729119468e-03  5.3994596649072921e-03  5.4701108784372433e-03 
 5.5416865537250481e-03  5.6141987872301777e-03  5.6876598336926855e-03  5.7620821082042676e-03 
 5.8374781883064495e-03  5.9138608161162180e-03  5.9912429004794713e-03  6.0696375191526420e-03 
 6.1490579210128756e-03  6.2295175282971174e-03  6.3110299388704910e-03  6.3936089285243948e-03 
 6.4772684533046278e-03  6.5620226518699944e-03  6.6478858478817753e-03  6.7348725524244606e-03 
 6.8229974664581524e-03  6.9122754833030710e-03  7.0027216911565581e-03  7.0943513756429998e-03 
 7.1871800223971679e-03  7.2812233196813039e-03  7.3764971610364820e-03  7.4730176479686529e-03 
 7.5708010926698339e-03  7.6698640207749158e-03  7.7702231741545291e-03  7.8718955137444622e-03 
 7.9748982224120846e-03  8.0792487078603231e-03  8.1849646055695835e-03  8.2920637817781931e-03 
 8.4005643365018378e-03  8.5104846065925076e-03  8.6218431688374671e-03  8.7346588430987811e-03 
 8.8489506954939189e-03  8.9647380416179485e-03  9.0820404498079543e-03  9.2008777444501106e-03 
 9.3212700093300589e-03  9.4432375910271094e-03  9.5668011023528621e-03  9.6919814258348246e-03 
 9.8187997172456062e-03  9.9472774091783050e-03  1.0077436214668627e-02  1.0209298130864504e-02 
 1.0342885442743612e-02  1.0478220726879612e-02  1.0615326855257632e-02  1.0754226999139698e-02 
 1.0894944632980718e-02  1.1037503538395735e-02  1.1181927808179075e-02  1.1328241850376059e-02 
 1.1476470392408069e-02  1.1626638485251504e-02  1.1778771507671471e-02  1.1932895170510851e-02 
 1.2089035521035491e-02  1.2247218947336260e-02  1.2407472182788695e-02  1.2569822310571018e-02 
 1.2734296768241208e-02  1.2900923352374090e-02  1.3069730223258967e-02  1.3240745909658800e-02 
 1.3413999313631618e-02  1.3589519715415058e-02  1.3767336778374774e-02  1.3947480554017630e-02 
 1.4129981487070479e-02  1.4314870420625353e-02  1.4502178601352091e-02  1.4691937684779043e-02 
 1.4884179740642959e-02  1.5078937258308828e-02  1.5276243152260682e-02  1.5476130767664202e-02 
 1.5678633886002151e-02  1.5883786730783511e-02  1.6091623973327307e-02  1.6302180738622218e-02 
 1.6515492611262724e-02  1.6731595641463003e-02  1.6950526351149506e-02  1.7172321740133247e-02 
 1.7397019292362856e-02  1.7624656982259464e-02  1.7855273281134475e-02  1.8088907163691263e-02 
 1.8325598114612061e-02  1.8565386135230930e-02  1.8808311750294061e-02  1.9054416014808600e-02 
 1.9303740520980994e-02  1.9556327405246200e-02  1.9812219355388846e-02  2.0071459617757564e-02 
 2.0334092004573687e-02  2.0600160901335689e-02  2.0869711274320392e-02  2.1142788678182384e-02 
 2.1419439263652876e-02  2.1699709785339256e-02  2.1983647609626771e-02  2.2271300722683521e-02 
 2.2562717738570274e-02  2.2857947907456280e-02  2.3157041123942772e-02  2.3460047935495203e-02 
 2.3767019550985920e-02  2.4078007849348562e-02  2.4393065388345729e-02  2.4712245413451382e-02 
 2.5035601866849444e-02  2.5363189396550179e-02  2.5695063365625753e-02  2.6031279861566854e-02 
 2.6371895705761525e-02  2.6716968463098133e-02  2.7066556451693972e-02  2.7420718752751174e-02 
 2.7779515220541551e-02  2.8143006492522132e-02  2.8511253999583056e-02  2.8884319976429429e-02 
 2.9262267472099288e-02  2.9645160360618966e-02  3.0033063351797930e-02  3.0426042002164946e-02 
 3.0824162726047259e-02  3.1227492806794759e-02  3.1636100408151055e-02  3.2050054585773341e-02 
 3.2469425298902829e-02  3.2894283422188197e-02  3.3324700757663500e-02  3.3760750046882858e-02 
 3.4202504983213984e-02  3.4650040224292543e-02  3.5103431404639465e-02  3.5562755148443322e-02 
 3.6028089082510102e-02  3.6499511849382132e-02  3.6977103120629073e-02  3.7460943610312492e-02 
 3.7951115088626718e-02  3.8447700395718244e-02  3.8950783455685895e-02  3.9460449290764192e-02 
 3.9976784035692312e-02  4.0499874952271114e-02  4.1029810444110436e-02  4.1566680071569731e-02 
 4.2110574566893835e-02  4.2661585849546990e-02  4.3219807041747424e-02  4.3785332484205228e-02 
 4.4358257752066192e-02  4.4938679671064206e-02  4.5526696333885064e-02  4.6122407116744257e-02 
 4.6725912696181968e-02  4.7337315066077523e-02  4.7956717554886640e-02  4.8584224843104158e-02 
 4.9219942980955320e-02  4.9863979406318482e-02  5.0516442962882414e-02  5.1177443918541135e-02 
 5.1847093984029313e-02  5.2525506331801884e-02  5.3212795615160326e-02  5.3909077987629332e-02 
 5.4614471122587063e-02  5.5329094233152236e-02  5.6053068092331411e-02  5.6786515053429909e-02 
 5.7529559070729888e-02  5.8282325720438684e-02  5.9044942221911811e-02  5.9817537459153122e-02 
 6.0600242002596554e-02  6.1393188131172859e-02  6.2196509854665051e-02  6.3010342936356406e-02 
 6.3834824915974711e-02  6.4670095132936936e-02  6.5516294749897647e-02  6.6373566776606205e-02 
 6.7242056094075534e-02  6.8121909479067350e-02  6.9013275628897863e-02  6.9916305186567940e-02 
 7.0831150766222109e-02  7.1757966978940768e-02  7.2696910458869821e-02  7.3648139889692057e-02 
 7.4611816031445330e-02  7.5588101747691275e-02  7.6577162033039561e-02  7.7579164041032489e-02 
 7.8594277112394265e-02  7.9622672803650027e-02  8.0664524916119265e-02  8.1720009525288767e-02 
 8.2789305010569511e-02  8.3872592085443592e-02  8.4970053828004988e-02  8.6081875711900263e-02 
 8.7208245637674056e-02  8.8349353964524660e-02  8.9505393542475289e-02  9.0676559744966079e-02 
 9.1863050501872767e-02  9.3065066332957219e-02  9.4282810381755788e-02  9.5516488449911091e-02 
 9.6766309031953088e-02  9.8032483350534494e-02  9.9315225392128920e-02  1.0061475194319447e-01 
 1.0193128262681125e-01  1.0326503993979830e-01  1.0461624929031593e-01  1.0598513903596045e-01 
 1.0737194052235691e-01  1.0877688812225725e-01  1.1020021927514978e-01  1.1164217452738699e-01 
 1.1310299757283851e-01  1.1458293529407589e-01  1.1608223780409647e-01  1.1760115848859287e-01 
 1.1913995404877600e-01  1.2069888454475797e-01  1.2227821343950328e-01  1.2387820764335358e-01 
 1.2549913755913775e-01  1.2714127712786949e-01  1.2880490387504440e-01  1.3049029895754230e-01 
 1.3219774721114358e-01  1.3392753719866696e-01  1.3567996125873741e-01  1.3745531555519200e-01 
 1.3925390012713243e-01  1.4107601893963204e-01  1.4292197993510702e-01  1.4479209508535920e-01 
 1.4668668044430000e-01  1.4860605620136433e-01  1.5055054673562351e-01  1.5252048067060589e-01 
 1.5451619092983537e-01  1.5653801479309518e-01  1.5858629395343066e-01  1.6066137457489499e-01 
 1.6276360735105211e-01  1.6489334756424467e-01  1.6705095514563770e-01  1.6923679473604780e-01 
 1.7145123574756821e-01  1.7369465242600046e-01  1.7596742391410283e-01  1.7826993431566615e-01 
 1.8060257276042854e-01  1.8296573346983899e-01  1.8535981582368199e-01  1.8778522442757353e-01 
 1.9024236918134033e-01  1.9273166534829397e-01  1.9525353362541187e-01  1.9780840021443438e-01 
 2.0039669689389628e-01  2.0301886109209677e-01  2.0567533596102636e-01  2.0836657045126056e-01 
 2.1109301938783362e-01  2.1385514354710500e-01  2.1665340973463182e-01  2.1948829086405983e-01 
 2.2236026603704723e-01  2.2526982062423384e-01  2.2821744634726995e-01  2.3120364136191829e-01 
 2.3422891034224388e-01  2.3729376456590476e-01  2.4039872200055937e-01  2.4354430739140431e-01 
 2.4673105234985782e-01  2.4995949544340185e-01  2.5323018228660354e-01  2.5654366563332404e-01 
 2.5990050547013527e-01  2.6330126911095930e-01  2.6674653129294557e-01  2.7023687427360293e-01 
 2.7377288792920240e-01  2.7735516985446795e-01  2.8098432546357094e-01  2.8466096809244718e-01 
 2.8838571910245170e-01  2.9215920798537043e-01  2.9598207246980585e-01  2.9985495862895467e-01 
 3.0377852098979558e-01  3.0775342264370603e-01  3.1178033535852673e-01  3.1585993969208986e-01 
 3.1999292510723815e-01  3.2417999008834364e-01  3.2842184225935384e-01  3.3271919850338161e-01 
 3.3707278508386035e-01  3.4148333776728407e-01  3.4595160194755387e-01  3.5047833277195106e-01 
 3.5506429526875904e-01  3.5971026447655485e-01  3.6441702557519240e-01  3.6918537401849993e-01 
 3.7401611566871351e-01  3.7891006693266965e-01  3.8386805489978004e-01  3.8889091748181154e-01 
 3.9397950355449618e-01  3.9913467310099016e-01  4.0435729735721743e-01  4.0964825895910745e-01 
 4.1500845209176407e-01  4.2043878264058449e-01  4.2594016834435611e-01  4.3151353895035677e-01 
 4.3715983637148398e-01  4.4288001484544071e-01  4.4867504109600354e-01  4.5454589449640159e-01 
 4.6049356723483276e-01  4.6651906448214586e-01  4.7262340456171698e-01  4.7880761912154840e-01 
 4.8507275330861982e-01  4.9141986594552051e-01  4.9785002970939374e-01  5.0436433131321812e-01 
 5.1096387168947033e-01  5.1764976617618152e-01  5.2442314470543316e-01  5.3128515199431758e-01 
 5.3823694773839925e-01  5.4527970680770466e-01  5.5241461944527914e-01  5.5964289146833990e-01 
 5.6696574447206327e-01  5.7438441603603552e-01  5.8190015993340849e-01  5.8951424634278882e-01 
 5.9722796206290196e-01  6.0504261073006416e-01  6.1295951303849960e-01  6.2098000696354150e-01 
 6.2910544798775392e-01  6.3733720933000682e-01  6.4567668217756091e-01  6.5412527592117586e-01 
 6.6268441839330294e-01  6.7135555610939157e-01  6.8014015451235377e-01  6.8903969822022804e-01 
 6.9805569127708245e-01  7.0718965740720285e-01  7.1644314027260503e-01  7.2581770373391719e-01 
 7.3531493211467658e-01  7.4493643046908420e-01  7.5468382485326169e-01  7.6455876260005995e-01 
 7.7456291259746157e-01  7.8469796557062677e-01  7.9496563436763179e-01  8.0536765424893875e-01 
 8.1590578318066664e-01  8.2658180213168675e-01  8.3739751537461193e-01  8.4835475079072231e-01 
 8.5945536017888280e-01  8.7070121956850044e-01  8.8209422953657823e-01  8.9363631552891731e-01 
 9.0532942818552165e-01  9.1717554367026088e-01  9.2917666400484711e-01  9.4133481740718039e-01 
 9.5365205863412339e-01  9.6613046932875990e-01  9.7877215837219667e-01  9.9157926223997084e-01 
 1.0045539453631200e+00  1.0176984004939693e+00  1.0310148490767226e+00  1.0445055416228852e+00 
 1.0581727580916063e+00  1.0720188082749982e+00  1.0860460321884973e+00  1.1002568004663305e+00 
 1.1146535147621603e+00  1.1292386081549681e+00  1.1440145455602513e+00  1.1589838241465993e+00 
 1.1741489737577220e+00  1.1895125573399976e+00  1.2050771713756190e+00  1.2208454463214027e+00 
 1.2368200470533453e+00  1.2530036733169909e+00  1.2693990601836995e+00  1.2860089785128694e+00 
 1.3028362354202339e+00  1.3198836747522609e+00  1.3371541775667715e+00  1.3546506626198471e+00 
 1.3723760868591053e+00  1.3903334459234304e+00  1.4085257746492450e+00  1.4269561475834025e+00 
 1.4456276795027954e+00  1.4645435259407582e+00  1.4837068837203600e+00  1.5031209914946766e+00 
 1.5227891302941290e+00  1.5427146240809868e+00  1.5629008403111240e+00  1.5833511905031292e+00 
 1.6040691308148614e+00  1.6250581626275380e+00  1.6463218331374945e+00  1.6678637359556563e+00 
 1.6896875117148715e+00  1.7117968486851864e+00  1.7341954833971713e+00  1.7568872012734031e+00 
 1.7798758372682117e+00  1.8031652765157953e+00  1.8267594549868180e+00  1.8506623601535979e+00 
 1.8748780316639986e+00  1.8994105620241422e+00  1.9242640972900480e+00  1.9494428377683315e+00 
 1.9749510387260598e+00  2.0007930111099075e+00  2.0269731222747169e+00  2.0534957967215797e+00 
 2.0803655168456068e+00  2.1075868236934521e+00  2.1351643177307622e+00  2.1631026596196667e+00 
 2.1914065710064401e+00  2.2200808353194734e+00  2.2491302985776827e+00  2.2785598702094996e+00 
 2.3083745238825748e+00  2.3385792983443401e+00  2.3691792982735715e+00  2.4001796951430867e+00 
 2.4315857280937410e+00  2.4634027048198521e+00  2.4956360024662150e+00  2.5282910685368494e+00 
 2.5613734218156483e+00  2.5948886532990465e+00  2.6288424271409383e+00  2.6632404816099160e+00 
 2.6980886300590554e+00  2.7333927619083873e+00  2.7691588436402204e+00  2.8053929198074954e+00 
 2.8421011140553234e+00  2.8792896301559030e+00  2.9169647530569667e+00  2.9551328499439555e+00 
 2.9938003713160866e+00  3.0329738520765046e+00  3.0726599126366949e+00  3.1128652600353486e+00 
 3.1535966890718683e+00  3.1948610834547071e+00  3.2366654169647333e+00  3.2790167546337980e+00 
 3.3219222539387729e+00  3.3653891660111594e+00  3.4094248368625539e+00  3.4540367086261394e+00 
 3.4992323208144236e+00  3.5450193115934372e+00  3.5914054190735989e+00  3.6383984826174767e+00 
 3.6860064441646565e+00  3.7342373495739527e+00  3.7830993499831727e+00  3.8326007031866824e+00 
 3.8827497750309914e+00  3.9335550408286006e+00  3.9850250867903512e+00  4.0371686114765133e+00 
 4.0899944272668760e+00  4.1435114618500215e+00  4.1977287597321764e+00  4.2526554837657287e+00 
 4.3083009166977675e+00  4.3646744627389022e+00  4.4217856491525867e+00  4.4796441278652548e+00 
 4.5382596770975194e+00  4.5976422030167097e+00  4.6578017414110446e+00  4.7187484593856954e+00 
 4.7804926570810604e+00  4.8430447694135079e+00  4.9064153678389006e+00  4.9706151621392012e+00 
 5.0356550022324482e+00  5.1015458800064186e+00  5.1682989311762926e+00  5.2359254371665767e+00 
 5.3044368270177520e+00  5.3738446793177657e+00  5.4441607241588539e+00  5.5153968451199544e+00 
 5.5875650812750592e+00  5.6606776292278438e+00  5.7347468451729284e+00  5.8097852469840996e+00 
 5.8858055163298628e+00  5.9628205008166706e+00  6.0408432161602068e+00  6.1198868483850655e+00 
 6.1999647560532241e+00  6.2810904725216714e+00  6.3632777082295782e+00  6.4465403530153917e+00 
 6.5308924784642661e+00  6.6163483402861463e+00  6.7029223807250826e+00  6.7906292309999658e+00 
 6.8794837137772431e+00  6.9695008456759853e+00  7.0606958398057325e+00  7.1530841083375458e+00 
 7.2466812651087009e+00  7.3415031282614613e+00  7.4375657229163847e+00  7.5348852838806089e+00 
 7.6334782583915644e+00  7.7333613088966038e+00  7.8345513158689952e+00  7.9370653806607594e+00 
 8.0409208283928368e+00  8.1461352108830827e+00  8.2527263096125729e+00  8.3607121387306602e+00 
 8.4701109480994976e+00  8.5809412263782452e+00  8.6932217041477227e+00  8.8069713570759074e+00 
 8.9222094091248838e+00  9.0389553357997237e+00  9.1572288674398994e+00  9.2770499925537653e+00 
 9.3984389611966499e+00  9.5214162883931692e+00  9.6460027576043199e+00  9.7722194242399247e+00 
 9.9000876192170537e+00  1.0029628952564996e+01  1.0160865317077411e+01  1.0293818892012252e+01 
 1.0428512146840148e+01  1.0564967845041709e+01  1.0703209047954727e+01  1.0843259118671524e+01 
 1.0985141725987381e+01  1.1128880848400629e+01  1.1274500778165070e+01  1.1422026125395425e+01 
 1.1571481822226497e+01  1.1722893127026772e+01  1.1876285628667135e+01  1.2031685250845451e+01 
 1.2189118256467735e+01  1.2348611252086643e+01  1.2510191192398043e+01  1.2673885384796421e+01 
 1.2839721493989906e+01  1.3007727546675653e+01  1.3177931936276462e+01  1.3350363427739230e+01 
 1.3525051162396444e+01  1.3702024662891034e+01  1.3881313838165795e+01  1.4062948988518077e+01 
 1.4246960810720596e+01  1.4433380403209272e+01  1.4622239271338934e+01  1.4813569332707795e+01 
 1.5007402922551611e+01  1.5203772799208410e+01  1.5402712149654725e+01  1.5604254595114275e+01 
 1.5808434196740038e+01  1.6015285461370649e+01  1.6224843347362164e+01  1.6437143270496080e+01 
 1.6652221109964728e+01  1.6870113214434827e+01  1.7090856408190671e+01  1.7314487997357389e+01 
 1.7541045776205817e+01  1.7770568033539806e+01  1.8003093559167137e+01  1.8238661650455072e+01 
 1.8477312118971714e+01  1.8719085297214249e+01  1.8964022045425253e+01  1.9212163758498132e+01 
 1.9463552372973012e+01  1.9718230374124062e+01  1.9976240803139632e+01  2.0237627264396320e+01 
 2.0502433932828204e+01  2.0770705561392543e+01  2.1042487488633014e+01  2.1317825646342218e+01 
 2.1596766567324142e+01  2.1879357393258339e+01  2.2165645882666979e+01  2.2455680418986177e+01 
 2.2749510018742871e+01  2.3047184339838768e+01  2.3348753689942630e+01  2.3654269034992378e+01 
 2.3963782007808494e+01  2.4277344916820049e+01  2.4595010754904973e+01  2.4916833208345981e+01 
 2.5242866665903673e+01  2.5573166228008368e+01  2.5907787716072207e+01  2.6246787681923148e+01 
 2.6590223417362182e+01  2.6938152963846058e+01  2.7290635122296230e+01  2.7647729463036420e+01 
 2.8009496335860138e+01  2.8375996880229927e+01  2.8747293035610088e+01  2.9123447551934611e+01 
 2.9504524000212029e+01  2.9890586783269107e+01  3.0281701146635044e+01  3.0677933189568140e+01 
 3.1079349876226726e+01  3.1486019046986250e+01  3.1898009429904487e+01  3.2315390652336724e+01 
 3.2738233252702962e+01  3.3166608692409135e+01  3.3600589367923995e+01  3.4040248623014691e+01 
 3.4485660761141766e+01  3.4936901058016673e+01  3.5394045774323594e+01  3.5857172168607626e+01 
 3.6326358510331701e+01  3.6801684093104264e+01  3.7283229248080126e+01  3.7771075357536610e+01 
 3.8265304868627325e+01  3.8766001307315975e+01  3.9273249292492387e+01  3.9787134550273358e+01 
 4.0307743928490567e+01  4.0835165411368017e+01  4.1369488134391624e+01  4.1910802399373409e+01 
 4.2459199689712378e+01  4.3014772685855910e+01  4.3577615280962668e+01  4.4147822596770858e+01 
 4.4725490999673980e+01  4.5310718117007049e+01  4.5903602853545785e+01  4.6504245408221784e+01 
 4.7112747291056372e+01  4.7729211340316056e+01  4.8353741739892378e+01  4.8986444036909340e+01 
 4.9627425159561007e+01  5.0276793435182718e+01  5.0934658608558600e+01  5.1601131860468740e+01 
 5.2276325826478988e+01  5.2960354615976726e+01  5.3653333831455228e+01  5.4355380588051382e+01 