  <PP_INFO>

############################################################
#    Opium Parameter File                                  #
############################################################
#-----------------------------------------------------------
#Command line   : opium Au Au.log ae ps nl tc2 ke upf qmcpack rpt 
 
#Opium version  : 4.1 
#Compile Host   : ben-XPS-15-7590 
#Compile OS     : Linux 6.5.0-26-generic x86_64 
#Compile Date   : Wed Apr 17 18:47:06 EDT 2024 
#-----------------------------------------------------------
#Execution Host : ben-XPS-15-7590 
#Execution Date : Fri Apr 19 01:22:18 2024
 
#-----------------------------------------------------------
############################################################
[Atom]
Au
15            
100   2.00  -
200   2.00  -
210   6.00  -
300   2.00  -
310   6.00  -
320   10.0  -
400   2.00  -
410   6.00  -
420   10.0  -
430   14.0  -
500   2.00  -
510   6.00  -
520   9.00  -
530   0.10  -
600   0.00  -

[Pseudo]
5 -1 -1 -1 -1 -1
g

[KBdesign]
s

[Relativity]
srl

[XC]
pbe

[Gaussinfo]
19 5
3 3 3 3 4
2  13.80917502   423.15150756
2   6.57668221   23.88042962
2   4.31526601   12.72961913
2  11.80694221   260.25598551
2   5.84381575   32.79793058
2   4.46210900   14.97588650
2   8.63322796   135.27739451
2   3.94675337   12.46465757
2   4.08160457   13.92047499
2   3.46716275   12.31756013
2   3.59363525   14.87772240
2   3.61393523   15.14359833
1   9.98526213   19.00000000
3   9.53625873   189.71998048
2  10.88238997   -140.52864271
2   3.79228969   -8.41769609

[Configs]
13

500   2.00  -
510   6.00  -
520   10.0  -
530   0.00  -
600   0.00  -

500   2.00  -
510   6.00  -
520   9.00  -
530   0.00  -
600   1.00  -

500   2.00  -
510   6.00  -
520   9.00  -
530   0.00  -
600   0.00  -

500   2.00  -
510   6.00  -
520   8.00  -
530   0.00  -
600   1.00  -

500   2.00  -
510   6.00  -
520   8.00  -
530   1.00  -
600   0.00  -

500   2.00  -
510   6.00  -
520   8.00  -
530   0.00  -
600   0.00  -

500   2.00  -
510   6.00  -
520   7.00  -
530   0.00  -
600   0.00  -

500   2.00  -
510   6.00  -
520   6.00  -
530   0.00  -
600   0.00  -

500   2.00  -
510   6.00  -
520   5.00  -
530   0.00  -
600   0.00  -

500   2.00  -
510   6.00  -
520   4.00  -
530   0.00  -
600   0.00  -

500   2.00  -
510   6.00  -
520   3.00  -
530   0.00  -
600   0.00  -

500   2.00  -
510   6.00  -
520   2.00  -
530   0.00  -
600   0.00  -

500   2.00  -
510   6.00  -
520   1.00  -
530   0.00  -
600   0.00  -

500   2.00  -
510   6.00  -
520   0.00  -
530   0.00  -
600   0.00  -
############################################################
  </PP_INFO>



<PP_HEADER>
   0         Version Number
   Au        Element
   NC        Norm - Conserving pseudopotential
    F      Nonlinear Core Correction
SLA  PW   PBE  PBE     PBE  Exchange-Correlation functional
 19          Z valence
 0          Total energy
 0.000000   0.000000     Suggested cutoff for wfc and rho
 3           Max angular momentum component
 1188           Number of points in mesh
 4  3     Number of Wavefuncitons, Number of Projectors
 Wavefunctions         nl  l   occ
                      5S  0  2.000000
                      5P  1  6.000000
                      5D  2  9.000000
                      5F  3  0.100000
</PP_HEADER>
<PP_MESH>
  <PP_R>
 2.3305457683800548e-05  2.3610406506352721e-05  2.3919345543799519e-05  2.4232327007573575e-05 
 2.4549403792287196e-05  2.4870629484671688e-05  2.5196058372633574e-05  2.5525745454429492e-05 
 2.5859746447960948e-05  2.6198117800190811e-05  2.6540916696682962e-05  2.6888201071266801e-05 
 2.7240029615828202e-05  2.7596461790228586e-05  2.7957557832353785e-05  2.8323378768294327e-05 
 2.8693986422659092e-05  2.9069443429023744e-05  2.9449813240515997e-05  2.9835160140539296e-05 
 3.0225549253636912e-05  3.0621046556498129e-05  3.1021718889108446e-05  3.1427633966045739e-05 
 3.1838860387924083e-05  3.2255467652987544e-05  3.2677526168855501e-05  3.3105107264421665e-05 
 3.3538283201908874e-05  3.3977127189081556e-05  3.4421713391618058e-05  3.4872116945644738e-05 
 3.5328413970434285e-05  3.5790681581269839e-05  3.6258997902477920e-05  3.6733442080631436e-05 
 3.7214094297925730e-05  3.7701035785729513e-05  3.8194348838313196e-05  3.8694116826756805e-05 
 3.9200424213039910e-05  3.9713356564315777e-05  4.0233000567372659e-05  4.0759444043283846e-05 
 4.1292775962249774e-05  4.1833086458634127e-05  4.2380466846196776e-05  4.2935009633526048e-05 
 4.3496808539672862e-05  4.4065958509989491e-05  4.4642555732175593e-05  4.5226697652533993e-05 
 4.5818482992439589e-05  4.6418011765023324e-05  4.7025385292074712e-05  4.7640706221165428e-05 
 4.8264078542997007e-05  4.8895607608975529e-05  4.9535400149016284e-05  5.0183564289581232e-05 
 5.0840209571952851e-05  5.1505446970746753e-05  5.2179388912666655e-05  5.2862149295504781e-05 
 5.3553843507390882e-05  5.4254588446293075e-05  5.4964502539773844e-05  5.5683705765004675e-05 
 5.6412319669042452e-05  5.7150467389371008e-05  5.7898273674712023e-05  5.8655864906107563e-05 
 5.9423369118278854e-05  6.0200916021264503e-05  6.0988637022341763e-05  6.1786665248234640e-05 
 6.2595135567612765e-05  6.3414184613884238e-05  6.4243950808287370e-05  6.5084574383283899e-05 
 6.5936197406258793e-05  6.6798963803529885e-05  6.7673019384671766e-05  6.8558511867157984e-05 
 6.9455590901325624e-05  7.0364408095666641e-05  7.1285117042449916e-05  7.2217873343678886e-05 
 7.3162834637388420e-05  7.4120160624286294e-05  7.5090013094742820e-05  7.6072555956133858e-05 
 7.7067955260541526e-05  7.8076379232817420e-05  7.9097998299013041e-05  8.0132985115182040e-05 
 8.1181514596559735e-05  8.2243763947124126e-05  8.3319912689543686e-05  8.4410142695517240e-05 
 8.5514638216510654e-05  8.6633585914895752e-05  8.7767174895496782e-05  8.8915596737549509e-05 
 9.0079045527078624e-05  9.1257717889698734e-05  9.2451813023844320e-05  9.3661532734435176e-05 
 9.4887081466981681e-05  9.6128666342136537e-05  9.7386497190698733e-05  9.8660786589075444e-05 
 9.9951749895208015e-05  1.0125960528496762e-04  1.0258457378902804e-04  1.0392687933022003e-04 
 1.0528674876137482e-04  1.0666441190366295e-04  1.0806010158543441e-04  1.0947405368156733e-04 
 1.1090650715333125e-04  1.1235770408877231e-04  1.1382788974362657e-04  1.1531731258276898e-04 
 1.1682622432220416e-04  1.1835487997160750e-04  1.1990353787742211e-04  1.2147245976652001e-04 
 1.2306191079043468e-04  1.2467215957017217e-04  1.2630347824160894e-04  1.2795614250148292e-04 
 1.2963043165398764e-04  1.3132662865797488e-04  1.3304502017477538e-04  1.3478589661664544e-04 
 1.3654955219584715e-04  1.3833628497437114e-04  1.4014639691430953e-04  1.4198019392888843e-04 
 1.4383798593416790e-04  1.4572008690141871e-04  1.4762681491018362e-04  1.4955849220203447e-04 
 1.5151544523503110e-04  1.5349800473889389e-04  1.5550650577089768e-04  1.5754128777249727e-04 
 1.5960269462669404e-04  1.6169107471615245e-04  1.6380678098207828e-04  1.6595017098386603e-04 
 1.6812160695952756e-04  1.7032145588691093e-04  1.7255008954572074e-04  1.7480788458034967e-04 
 1.7709522256353235e-04  1.7941249006083203e-04  1.8176007869597109e-04  1.8413838521701633e-04 
 1.8654781156343057e-04  1.8898876493400070e-04  1.9146165785565626e-04  1.9396690825318664e-04 
 1.9650493951987204e-04  1.9907618058903685e-04  2.0168106600654181e-04  2.0432003600422230e-04 
 2.0699353657428895e-04  2.0970201954470129e-04  2.1244594265552779e-04  2.1522576963630500e-04 
 2.1804197028440884e-04  2.2089502054445178e-04  2.2378540258871825e-04  2.2671360489865305e-04 
 2.2968012234741612e-04  2.3268545628351688e-04  2.3573011461554342e-04  2.3881461189800040e-04 
 2.4193946941827003e-04  2.4510521528471065e-04  2.4831238451590863e-04  2.5156151913109724e-04 
 2.5485316824175970e-04  2.5818788814443023e-04  2.6156624241470931e-04  2.6498880200250956e-04 
 2.6845614532854714e-04  2.7196885838209678e-04  2.7552753482002520e-04  2.7913277606712053e-04 
 2.8278519141773406e-04  2.8648539813875336e-04  2.9023402157392103e-04  2.9403169524951978e-04 
 2.9787906098143965e-04  3.0177676898364626e-04  3.0572547797806903e-04  3.0972585530592624e-04 
 3.1377857704050784e-04  3.1788432810143252e-04  3.2204380237040183e-04  3.2625770280846707e-04 
 3.3052674157483186e-04  3.3485164014720857e-04  3.3923312944374932e-04  3.4367194994657370e-04 
 3.4816885182691157e-04  3.5272459507188386e-04  3.5733994961294186e-04  3.6201569545598803e-04 
 3.6675262281319867e-04  3.7155153223657141e-04  3.7641323475322096e-04  3.8133855200244354e-04 
 3.8632831637457716e-04  3.9138337115167686e-04  3.9650457065003167e-04  4.0169278036454532e-04 
 4.0694887711500830e-04  4.1227374919428143e-04  4.1766829651841979e-04  4.2313343077876088e-04 
 4.2867007559600198e-04  4.3427916667629492e-04  4.3996165196938272e-04  4.4571849182880474e-04 
 4.5155065917419878e-04  4.5745913965572753e-04  4.6344493182065512e-04  4.6950904728210413e-04 
 4.7565251089002095e-04  4.8187636090437697e-04  4.8818164917063827e-04  4.9456944129752894e-04 
 5.0104081683712215e-04  5.0759686946728639e-04  5.1423870717652012e-04  5.2096745245120443e-04 
 5.2778424246530608e-04  5.3469022927256219e-04  5.4168658000117967e-04  5.4877447705108356e-04 
 5.5595511829374558e-04  5.6322971727462646e-04  5.7059950341826777e-04  5.7806572223606870e-04 
 5.8562963553677994e-04  5.9329252163975194e-04  6.0105567559097495e-04  6.0892040938194337e-04 
 6.1688805217138668e-04  6.2495995050990030e-04  6.3313746856751539e-04  6.4142198836424666e-04 
 6.4981491000365779e-04  6.5831765190948197e-04  6.6693165106533852e-04  6.7565836325758719e-04 
 6.8449926332135840e-04  6.9345584538980541e-04  7.0252962314661528e-04  7.1172213008182566e-04 
 7.2103491975098713e-04  7.3046956603771938e-04  7.4002766341970023e-04  7.4971082723813639e-04 
 7.5952069397076049e-04  7.6945892150839801e-04  7.7952718943515714e-04  7.8972719931228092e-04 
 8.0006067496571603e-04  8.1052936277744160e-04  8.2113503198061495e-04  8.3187947495857388e-04 
 8.4276450754775445e-04  8.5379196934457196e-04  8.6496372401631582e-04  8.7628165961611576e-04 
 8.8774768890202607e-04  8.9936374966028668e-04  9.1113180503281182e-04  9.2305384384896961e-04 
 9.3513188096169537e-04  9.4736795758800798e-04  9.5976414165398064e-04  9.7232252814422396e-04 
 9.8504523945594545e-04  9.9793442575763771e-04  1.0109922653524640e-03  1.0242209650463939e-03 
 1.0376227605211617e-03  1.0511999167121000e-03  1.0649547281909202e-03  1.0788895195535002e-03 
 1.0930066458127460e-03  1.1073084927965954e-03  1.1217974775512289e-03  1.1364760487495558e-03 
 1.1513466871050436e-03  1.1664119057909687e-03  1.1816742508651457e-03  1.1971363017002177e-03 
 1.2128006714195779e-03  1.2286700073389906e-03  1.2447469914139970e-03  1.2610343406931704e-03 
 1.2775348077773048e-03  1.2942511812846099e-03  1.3111862863219965e-03  1.3283429849625203e-03 
 1.3457241767290879e-03  1.3633327990844762e-03  1.3811718279277737e-03  1.3992442780973136e-03 
 1.4175532038801888e-03  1.4361016995284336e-03  1.4548928997819594e-03  1.4739299803983356e-03 
 1.4932161586894937e-03  1.5127546940654694e-03  1.5325488885852446e-03  1.5526020875148052e-03 
 1.5729176798924991e-03  1.5934990991017912e-03  1.6143498234515131e-03  1.6354733767637076e-03 
 1.6568733289691611e-03  1.6785532967107280e-03  1.7005169439545580e-03  1.7227679826093112e-03 
 1.7453101731534800e-03  1.7681473252709186e-03  1.7912832984946895e-03  1.8147220028593340e-03 
 1.8384673995616753e-03  1.8625235016302745e-03  1.8868943746036340e-03  1.9115841372172922e-03 
 1.9365969620998955e-03  1.9619370764783818e-03  1.9876087628923930e-03  2.0136163599180344e-03 
 2.0399642629011032e-03  2.0666569246999148e-03  2.0936988564378462e-03  2.1210946282657194e-03 
 2.1488488701341796e-03  2.1769662725761611e-03  2.2054515874995978e-03  2.2343096289905101e-03 
 2.2635452741265952e-03  2.2931634638014647e-03  2.3231692035596673e-03  2.3535675644426406e-03 
 2.3843636838457214e-03  2.4155627663863884e-03  2.4471700847838477e-03  2.4791909807501370e-03 
 2.5116308658928877e-03  2.5444952226298984e-03  2.5777896051156781e-03  2.6115196401801113e-03 
 2.6456910282794070e-03  2.6803095444594797e-03  2.7153810393319624e-03  2.7509114400629613e-03 
 2.7869067513747667e-03  2.8233730565606621e-03  2.8603165185130167e-03  2.8977433807648306e-03 
 2.9356599685449029e-03  2.9740726898468167e-03  3.0129880365118928e-03  3.0524125853263425e-03 
 3.0923529991327497e-03  3.1328160279561097e-03  3.1738085101445991e-03  3.2153373735252740e-03 
 3.2574096365748893e-03  3.3000324096060353e-03  3.3432128959688047e-03  3.3869583932681596e-03 
 3.4312762945972659e-03  3.4761740897869273e-03  3.5216593666713950e-03  3.5677398123707188e-03 
 3.6144232145899004e-03  3.6617174629350233e-03  3.7096305502466250e-03  3.7581705739505008e-03 
 3.8073457374261806e-03  3.8571643513933365e-03  3.9076348353163023e-03  3.9587657188269853e-03 
 4.0105656431663949e-03  4.0630433626450352e-03  4.1162077461223976e-03  4.1700677785058279e-03 
 4.2246325622689943e-03  4.2799113189902144e-03  4.3359133909109471e-03  4.3926482425146358e-03 
 4.4501254621262393e-03  4.5083547635326694e-03  4.5673459876244583e-03  4.6271091040588803e-03 
 4.6876542129448556e-03  4.7489915465498932e-03  4.8111314710293524e-03  4.8740844881783752e-03 
 4.9378612372066918e-03  5.0024724965366842e-03  5.0679291856249595e-03  5.1342423668077671e-03 
 5.2014232471705594e-03  5.2694831804420130e-03  5.3384336689128471e-03  5.4082863653797091e-03 
 5.4790530751145676e-03  5.5507457578597950e-03  5.6233765298494129e-03  5.6969576658567559e-03 
 5.7715016012689392e-03  5.8470209341884684e-03  5.9235284275623518e-03  6.0010370113390693e-03 
 6.0795597846537456e-03  6.1591100180419696e-03  6.2397011556825192e-03  6.3213468176694732e-03 
 6.4040608023140291e-03  6.4878570884764611e-03  6.5727498379285713e-03  6.6587533977470739e-03 
 6.7458823027382771e-03  6.8341512778944905e-03  6.9235752408826111e-03  7.0141693045652183e-03 
 7.1059487795546977e-03  7.1989291768007682e-03  7.2931262102118649e-03  7.3885557993108343e-03 
 7.4852340719253644e-03  7.5831773669136383e-03  7.6824022369256090e-03  7.7829254512004811e-03 
 7.8847639984007210e-03  7.9879350894831933e-03  8.0924561606078443e-03  8.1983448760844686e-03 
 8.3056191313580045e-03  8.4142970560329156e-03  8.5243970169371457e-03  8.6359376212261207e-03 
 8.7489377195274481e-03  8.8634164091266950e-03  8.9793930371948744e-03  9.0968872040581624e-03 
 9.2159187665104073e-03  9.3365078411689704e-03  9.4586748078744846e-03  9.5824403131350988e-03 
 9.7078252736157583e-03  9.8348508796732223e-03  9.9635385989372480e-03  1.0093910179938678e-02 
 1.0225987655785003e-02  1.0359793347883995e-02  1.0495349869716088e-02  1.0632680130656113e-02 
 1.0771807339845035e-02  1.0912755010112326e-02  1.1055546961949736e-02  1.1200207327536989e-02 
 1.1346760554820172e-02  1.1495231411643507e-02  1.1645644989935174e-02  1.1798026709947899e-02 
 1.1952402324555052e-02  1.2108797923602940e-02  1.2267239938320015e-02  1.2427755145783885e-02 
 1.2590370673446651e-02  1.2755114003719533e-02  1.2922012978617446e-02  1.3091095804464385e-02 
 1.3262391056660354e-02  1.3435927684510671e-02  1.3611735016118493e-02  1.3789842763341272e-02 
 1.3970281026812217e-02  1.4153080301027311e-02  1.4338271479498978e-02  1.4525885859977158e-02 
 1.4715955149738683e-02  1.4908511470945914e-02  1.5103587366075432e-02  1.5301215803417830e-02 
 1.5501430182649368e-02  1.5704264340476674e-02  1.5909752556355190e-02  1.6117929558282482e-02 
 1.6328830528667355e-02  1.6542491110275767e-02  1.6758947412254546e-02  1.6978236016233911e-02 
 1.7200393982509884e-02  1.7425458856307481e-02  1.7653468674126073e-02  1.7884461970167558e-02 
 1.8118477782848749e-02  1.8355555661398973e-02  1.8595735672543971e-02  1.8839058407277280e-02 
 1.9085564987720197e-02  1.9335297074071549e-02  1.9588296871648279e-02  1.9844607138018357e-02 
 2.0104271190226848e-02  2.0367332912116599e-02  2.0633836761744719e-02  2.0903827778896100e-02 
 2.1177351592695248e-02  2.1454454429317704e-02  2.1735183119802416e-02  2.2019585107966189e-02 
 2.2307708458421956e-02  2.2599601864701696e-02  2.2895314657485812e-02  2.3194896812940107e-02 
 2.3498398961161883e-02  2.3805872394736565e-02  2.4117369077406234e-02  2.4432941652851675e-02 
 2.4752643453589192e-02  2.5076528509984052e-02  2.5404651559381666e-02  2.5737068055358338e-02 
 2.6073834177093080e-02  2.6415006838862005e-02  2.6760643699656961e-02  2.7110803172930083e-02 
 2.7465544436465785e-02  2.7824927442381880e-02  2.8189012927261760e-02  2.8557862422418923e-02 
 2.8931538264295949e-02  2.9310103604999506e-02  2.9693622422973184e-02  3.0082159533810039e-02 
 3.0475780601206561e-02  3.0874552148060015e-02  3.1278541567710892e-02  3.1687817135332662e-02 
 3.2102448019470375e-02  3.2522504293730305e-02  3.2948056948622594e-02  3.3379177903558752e-02 
 3.3815940019006285e-02  3.4258417108802244e-02  3.4706683952627965e-02  3.5160816308646918e-02 
 3.5620890926308171e-02  3.6086985559317136e-02  3.6559178978776148e-02  3.7037550986496956e-02 
 3.7522182428487434e-02  3.8013155208614743e-02  3.8510552302447307e-02  3.9014457771277850e-02 
 3.9524956776329896e-02  4.0042135593150362e-02  4.0566081626190222e-02  4.1096883423576105e-02 
 4.1634630692075139e-02  4.2179414312255574e-02  4.2731326353845869e-02  4.3290460091294655e-02 
 4.3856910019534394e-02  4.4430771869951084e-02  4.5012142626563327e-02  4.5601120542412721e-02 
 4.6197805156168850e-02  4.6802297308951621e-02  4.7414699161373607e-02  4.8035114210805425e-02 
 4.8663647308867096e-02  4.9300404679148195e-02  4.9945493935159763e-02  5.0599024098521475e-02 
 5.1261105617386407e-02  5.1931850385107073e-02  5.2611371759145653e-02  5.3299784580231664e-02 
 5.3997205191770398e-02  5.4703751459505109e-02  5.5419542791436745e-02  5.6144700158003956e-02 
 5.6879346112527686e-02  5.7623604811922781e-02  5.8377602037680852e-02  5.9141465217127626e-02 
 5.9915323444958493e-02  6.0699307505055831e-02  6.1493549892591752e-02  6.2298184836420169e-02 
 6.3113348321761589e-02  6.3939178113185266e-02  6.4775813777891517e-02  6.5623396709298912e-02 
 6.6482070150940223e-02  6.7351979220670793e-02  6.8233270935193879e-02  6.9126094234906815e-02 
 7.0030600009072227e-02  7.0946941121318788e-02  7.1875272435475424e-02  7.2815750841743757e-02 
 7.3768535283213019e-02  7.4733786782721245e-02  7.5711668470069396e-02  7.6702345609590092e-02 
 7.7705985628077817e-02  7.8722758143084451e-02  7.9752834991585045e-02  8.0796390259018663e-02 
 8.1853600308709293e-02  8.2924643811671583e-02  8.4009701776806708e-02  8.5108957581493339e-02 
 8.6222597002578796e-02  8.7350808247775816e-02  8.8493781987470072e-02  8.9651711386943972e-02 
 9.0824792139022018e-02  9.2013222497143360e-02  9.3217203308867236e-02  9.4436938049816135e-02 
 9.5672632858064474e-02  9.6924496568975962e-02  9.8192740750497276e-02  9.9477579738913649e-02 
 1.0077923067507216e-01  1.0209791354107908e-01  1.0343385119747736e-01  1.0478726942091057e-01 
 1.0615839694227977e-01  1.0754746548539945e-01  1.0895470980615955e-01  1.1038036773219964e-01 
 1.1182468020310242e-01  1.1328789131111307e-01  1.1477024834239145e-01  1.1627200181880400e-01 
 1.1779340554026273e-01  1.1933471662761727e-01  1.2089619556611003e-01  1.2247810624939813e-01 
 1.2408071602415210e-01  1.2570429573523825e-01  1.2734911977149208e-01  1.2901546611209047e-01 
 1.3070361637353112e-01  1.3241385585722615e-01  1.3414647359771883e-01  1.3590176241153110e-01 
 1.3768001894665027e-01  1.3948154373266319e-01  1.4130664123154649e-01  1.4315561988912140e-01 
 1.4502879218718179e-01  1.4692647469630438e-01  1.4884898812935013e-01  1.5079665739566447e-01 
 1.5276981165598932e-01  1.5476878437809094e-01  1.5679391339311716e-01  1.5884554095269146e-01 
 1.6092401378675456e-01  1.6302968316216235e-01  1.6516290494205094e-01  1.6732403964597839e-01 
 1.6951345251085348e-01  1.7173151355266128e-01  1.7397859762899709e-01  1.7625508450241814e-01 
 1.7856135890462418e-01  1.8089781060147847e-01  1.8326483445887867e-01  1.8566283050949048e-01 
 1.8809220402035418e-01  1.9055336556137467e-01  1.9304673107471046e-01  1.9557272194506778e-01 
 1.9813176507091582e-01  2.0072429293663360e-01  2.0335074368560088e-01  2.0601156119424552e-01 
 2.0870719514705940e-01  2.1143810111259645e-01  2.1420474062046468e-01  2.1700758123932579e-01 
 2.1984709665591537e-01  2.2272376675509714e-01  2.2563807770096461e-01  2.2859052201900401e-01 
 2.3158159867933220e-01  2.3461181318102378e-01  2.3768167763754219e-01  2.4079171086328638e-01 
 2.4394243846127395e-01  2.4713439291196809e-01  2.5036811366326817e-01  2.5364414722167761e-01 
 2.5696304724466512e-01  2.6032537463423389e-01  2.6373169763171550e-01  2.6718259191380372e-01 
 2.7067864068984582e-01  2.7422043480040592e-01  2.7780857281711835e-01  2.8144366114384822e-01 
 2.8512631411917450e-01  2.8885715412021518e-01  2.9263681166781014e-01  2.9646592553308082e-01 
 3.0034514284538477e-01  3.0427511920167954e-01  3.0825651877732357e-01  3.1229001443832138e-01 
 3.1637628785503968e-01  3.2051602961741160e-01  3.2470993935164810e-01  3.2895872583847602e-01 
 3.3326310713292429e-01  3.3762381068567643e-01  3.4204157346601177e-01  3.4651714208635492e-01 
 3.5105127292845500e-01  3.5564473227121596e-01  3.6029829642019962e-01  3.6501275183882309e-01 
 3.6978889528127301e-01  3.7462753392715875e-01  3.7952948551792870e-01  3.8449557849506738e-01 
 3.8952665214010840e-01  3.9462355671647215e-01  3.9978715361316330e-01  4.0501831549034717e-01 
 4.1031792642683168e-01  4.1568688206947862e-01  4.2112608978457033e-01  4.2663646881115647e-01 
 4.3221895041640779e-01  4.3787447805300239e-01  4.4360400751857154e-01  4.4940850711723179e-01 
 4.5528895782323053e-01  4.6124635344673326e-01  4.6728170080177933e-01  4.7339601987643659e-01 
 4.7959034400518219e-01  4.8586572004353518e-01  4.9222320854498292e-01  4.9866388394021366e-01 
 5.0518883471869858e-01  5.1179916361264921e-01  5.1849598778338202e-01  5.2528043901012067e-01 
 5.3215366388127050e-01  5.3911682398819327e-01  5.4617109612152026e-01  5.5331767247003194e-01 
 5.6055776082214059e-01  5.6789258477000981e-01  5.7532338391634452e-01  5.8285141408388641e-01 
 5.9047794752765115e-01  5.9820427314994284e-01  6.0603169671818191e-01  6.1396154108557932e-01 
 6.2199514641470810e-01  6.3013387040398949e-01  6.3837908851714886e-01  6.4673219421567163e-01 
 6.5519459919430190e-01  6.6376773361962260e-01  6.7245304637175640e-01  6.8125200528923036e-01 
 6.9016609741704393e-01  6.9919682925798299e-01  7.0834572702722276e-01  7.1761433691026155e-01 
 7.2700422532422959e-01  7.3651697918261783e-01  7.4615420616346961e-01  7.5591753498108227e-01 
 7.6580861566126490e-01  7.7582911982019154e-01  7.8598074094691628e-01  7.9626519468957102e-01 
 8.0668421914531663e-01  8.1723957515408430e-01  8.2793304659616218e-01  8.3876644069367556e-01 
 8.4974158831601143e-01  8.6086034428923996e-01  8.7212458770958412e-01  8.8353622226099227e-01 
 8.9509717653686405e-01  9.0680940436598856e-01  9.1867488514274498e-01  9.3069562416162566e-01 
 9.4287365295613512e-01  9.5521102964212490e-01  9.6770983926562026e-01  9.8037219415519328e-01 
 9.9320023427895898e-01  1.0061961276062303e+00  1.0193620704739113e+00  1.0327002879576828e+00 
 1.0462130342480458e+00  1.0599025930312846e+00  1.0737712778754167e+00  1.0878214326211895e+00 
 1.1020554317781950e+00  1.1164756809261698e+00  1.1310846171215412e+00  1.1458847093092970e+00 
 1.1608784587402425e+00  1.1760683993937182e+00  1.1914570984058479e+00  1.2070471565033913e+00 
 1.2228412084432752e+00  1.2388419234578640e+00  1.2550520057060808e+00  1.2714741947304071e+00 
 1.2881112659198746e+00  1.3049660309791120e+00  1.3220413384035301e+00  1.3393400739607249e+00 
 1.3568651611781777e+00  1.3746195618373400e+00  1.3926062764741804e+00  1.4108283448862828e+00 
 1.4292888466465787e+00  1.4479909016238037e+00  1.4669376705097614e+00  1.4861323553534889e+00 
 1.5055782001024098e+00  1.5252784911505701e+00  1.5452365578940477e+00  1.5654557732936192e+00 
 1.5859395544448136e+00  1.6066913631553987e+00  1.6277147065304380e+00  1.6490131375649992e+00 
 1.6705902557446197e+00  1.6924497076536278e+00  1.7145951875914229e+00  1.7370304381968236e+00 
 1.7597592510805802e+00  1.7827854674661665e+00  1.8061129788389563e+00  1.8297457276038938e+00 
 1.8536877077517682e+00  1.8779429655342081e+00  1.9025156001475099e+00  1.9274097644254076e+00 
 1.9526296655409183e+00  1.9781795657173498e+00  2.0040637829486458e+00  2.0302866917291258e+00 
 2.0568527237927872e+00  2.0837663688622778e+00  2.1110321754076713e+00  2.1386547514151699e+00 
 2.1666387651658634e+00  2.1949889460246790e+00  2.2237100852396590e+00  2.2528070367516895e+00 
 2.2822847180148300e+00  2.3121481108273731e+00  2.3424022621737826e+00  2.3730522850776432e+00 
 2.4041033594657759e+00  2.4355607330436566e+00  2.4674297221822967e+00  2.4997157128167027e+00 
 2.5324241613561398e+00  2.5655605956062604e+00  2.5991306157033209e+00  2.6331398950606180e+00 
 2.6675941813273076e+00  2.7024992973597737e+00  2.7378611422057038e+00  2.7736856921010404e+00 
 2.8099790014799830e+00  2.8467472039981971e+00  2.8839965135694210e+00  2.9217332254156285e+00 
 2.9599637171309392e+00  2.9986944497594448e+00  3.0379319688871429e+00  3.0776829057481550e+00 
 3.1179539783454264e+00  3.1587519925860654e+00  3.2000838434315866e+00  3.2419565160631567e+00 
 3.2843770870621118e+00  3.3273527256059161e+00  3.3708906946797685e+00  3.4149983523040675e+00 
 3.4596831527779330e+00  3.5049526479389983e+00  3.5508144884396917e+00  3.5972764250402132e+00 
 3.6443463099184328e+00  3.6920320979969250e+00  3.7403418482873718e+00  3.7892837252525555e+00 
 3.8388660001861683e+00  3.8890970526106847e+00  3.9399853716935267e+00  3.9915395576817252e+00 
 4.0437683233554207e+00  4.0966804955003244e+00  4.1502850163994625e+00  4.2045909453444530e+00 
 4.2596074601665395e+00  4.3153438587876716e+00  4.3718095607918750e+00  4.4290141090171815e+00 
 4.4869671711683941e+00  4.5456785414509504e+00  4.6051581422261663e+00  4.6654160256881401e+00 
 4.7264623755625976e+00  4.7883075088279616e+00  4.8509618774589534e+00  4.9144360701929939e+00 
 4.9787408143197398e+00  5.0438869774939814e+00  5.1098855695723584e+00  5.1767477444740146e+00 
 5.2444848020656476e+00  5.3131081900712109e+00  5.3826295060066078e+00  5.4530604991396991e+00 
 5.5244130724759559e+00  5.5966992847701000e+00  5.6699313525640544e+00  5.7441216522515779e+00 
 5.8192827221698975e+00  5.8954272647187187e+00  5.9725681485069657e+00  6.0507184105275993e+00 
 6.1298912583609075e+00  6.2101000724066129e+00  6.2913584081452054e+00  6.3736799984288055e+00 
 6.4570787558021134e+00  6.5415687748536255e+00  6.6271643345976532e+00  6.7138799008875214e+00 
 6.8017301288603225e+00  6.8907298654136770e+00  6.9808941517148897e+00  7.0722382257429466e+00 
 7.1647775248637640e+00  7.2585276884391465e+00  7.3535045604698750e+00  7.4497241922733739e+00 
 7.5472028451964315e+00  7.6459569933634004e+00  7.7460033264603654e+00  7.8473587525557384e+00 
 7.9500404009577812e+00  8.0540656251094376e+00  8.1594520055211923e+00  8.2662173527421636e+00 
 8.3743797103701478e+00  8.4839573581010175e+00  8.5949688148180439e+00  8.7074328417216336e+00 
 8.8213684455000063e+00  8.9367948815413794e+00  9.0537316571881696e+00  9.1721985350337807e+00 
 9.2922155362625336e+00  9.4138029440332840e+00  9.5369813069073395e+00  9.6617714423212018e+00 
 9.7881944401047658e+00  9.9162716660455583e+00  1.0046024765499613e+01  1.0177475667049531e+01 
 1.0310646586210559e+01  1.0445560029184993e+01  1.0582238796665802e+01  1.0720705987690000e+01 
 1.0860985003542435e+01  1.1003099551710662e+01  1.1147073649891571e+01  1.1292931630050425e+01 
 1.1440698142533027e+01  1.1590398160231684e+01  1.1742056982805693e+01  1.1895700240957023e+01 
 1.2051353900761995e+01  1.2209044268059584e+01  1.2368797992897180e+01  1.2530642074034512e+01 
 1.2694603863506519e+01  1.2860711071245822e+01  1.3028991769765900e+01  1.3199474398905332e+01 
 1.3372187770634202e+01  1.3547161073923412e+01  1.3724423879677669e+01  1.3904006145733046e+01 
 1.4085938221919934e+01  1.4270250855192222e+01  1.4456975194823613e+01  1.4646142797671931e+01 
 1.4837785633512290e+01  1.5031936090440079e+01  1.5228626980344615e+01  1.5427891544454432e+01 
 1.5629763458955138e+01  1.5834276840680783e+01  1.6041466252879591e+01  1.6251366711055372e+01 
 1.6464013688885149e+01  1.6679443124214291e+01  1.6897691425130112e+01  1.7118795476114922e+01 
 1.7342792644279587e+01  1.7569720785678658e+01  1.7799618251708143e+01  1.8032523895586980e+01 
 1.8268477078923322e+01  1.8507517678366749e+01  1.8749686092347496e+01  1.8995023247903923e+01 
 1.9243570607599235e+01  1.9495370176528791e+01  1.9750464509419047e+01  2.0008896717819447e+01 
 2.0270710477388231e+01  2.0535950035273949e+01  2.0804660217593174e+01  2.1076886437006280e+01 
 2.1352674700392264e+01  2.1632071616624046e+01  2.1915124404445464e+01  2.2201880900451346e+01 
 2.2492389567172030e+01  2.2786699501263630e+01  2.3084860441805489e+01  2.3386922778706221e+01 
 2.3692937561219686e+01  2.4002956506572485e+01  2.4317032008704253e+01  2.4635217147122379e+01 
 2.4957565695872567e+01  2.5284132132626826e+01  2.5614971647890133e+01  2.5950140154328047e+01 
 2.6289694296215881e+01  2.6633691459011796e+01  2.6982189779055041e+01  2.7335248153391177e+01 
 2.7692926249725765e+01  2.8055284516508401e+01  2.8422384193148620e+01  2.8794287320365502e+01 
 2.9171056750672719e+01  2.9552756159000729e+01  2.9939450053458032e+01  3.0331203786233161e+01 
 3.0728083564639359e+01  3.1130156462303798e+01  3.1537490430503148e+01  3.1950154309647580e+01 
 3.2368217840914753e+01  3.2791751678036526e+01  3.3220827399239425e+01  3.3655517519341586e+01 
 3.4095895502007906e+01  3.4542035772165590e+01  3.4994013728582154e+01  3.5451905756607985e+01 
 3.5915789241085655e+01  3.6385742579428118e+01  3.6861845194868096e+01  3.7344177549880762e+01 