  <PP_INFO>

############################################################
#    Opium Parameter File                                  #
############################################################
#-----------------------------------------------------------
#Command line   : opium N N.log ae ps nl tc2 ke upf rpt 
 
#Opium version  : 4.1 
#Compile Host   : andes-login5.olcf.ornl.gov 
#Compile OS     : Linux 4.18.0-348.12.2.el8_5.x86_64 x86_64 
#Compile Date   : Thu Jun 30 15:38:05 EDT 2022 
#-----------------------------------------------------------
#Execution Host : andes-login5.olcf.ornl.gov 
#Execution Date : Thu Jun 30 16:15:57 2022
 
#-----------------------------------------------------------
############################################################
[Atom]
N
3
100   2.00  -
200   2.00  -
210   2.  -

[Pseudo]
2  1.39 1.37
g

[Gaussinfo]
5   2
2   6
2  9.41609     34.77692 
2  8.16694     15.20330 
1  12.91881    3.25000 
1  9.22825     1.75000
3  12.96581    41.98612 
3  8.05477     16.14945
2  12.54876   -26.09522 
2  7.53360    -10.32626 

[XC]
pbe

[KBDesign]
p

[Relativity]
nrl

[Configs]
8

200 2.00 -
210 3.00 -

200 1.00 -
210 4.00 -

200 2.00 -
210 2.00 -

200 1.00 -
210 2.00 -

200 2.00 -
210 1.00 -

200 1.00 -
210 2.00 -

200 2.00 -
210 0.00 -

200 1.00 -
210 1.00 -


############################################################
  </PP_INFO>



<PP_HEADER>
   0         Version Number
   N        Element
   NC        Norm - Conserving pseudopotential
    F      Nonlinear Core Correction
SLA  PW   PBE  PBE     PBE  Exchange-Correlation functional
 5          Z valence
 0          Total energy
 0.000000   0.000000     Suggested cutoff for wfc and rho
 1           Max angular momentum component
 1126           Number of points in mesh
 2  1     Number of Wavefuncitons, Number of Projectors
 Wavefunctions         nl  l   occ
                       S  0  2.000000
                       P  1  2.000000
</PP_HEADER>
<PP_MESH>
  <PP_R>
 5.2275795857471014e-05  5.2959817712394479e-05  5.3652789902560828e-05  5.4354829541919533e-05 
 5.5066055276840584e-05  5.5786587306166005e-05  5.6516547401523590e-05  5.7256058927906888e-05 
 5.8005246864523965e-05  5.8764237825919238e-05  5.9533160083371669e-05  6.0312143586572870e-05 
 6.1101319985588926e-05  6.1900822653109615e-05  6.2710786706988671e-05  6.3531349033078900e-05 
 6.4362648308366468e-05  6.5204825024407483e-05  6.6058021511071404e-05  6.6922381960595199e-05 
 6.7798052451952060e-05  6.8685180975539226e-05  6.9583917458188632e-05  7.0494413788505013e-05 
 7.1416823842535094e-05  7.2351303509773506e-05  7.3298010719508182e-05  7.4257105467510814e-05 
 7.5228749843076539e-05  7.6213108056417448e-05  7.7210346466414465e-05  7.8220633608732396e-05 
 7.9244140224302969e-05  8.0281039288180076e-05  8.1331506038773531e-05  8.2395718007464397e-05 
 8.3473855048608298e-05  8.4566099369931259e-05  8.5672635563323245e-05  8.6793650636034586e-05 
 8.7929334042280712e-05  8.9079877715260368e-05  9.0245476099592572e-05  9.1426326184178546e-05 
 9.2622627535493169e-05  9.3834582331312087e-05  9.5062395394880390e-05  9.6306274229528119e-05 
 9.7566429053738902e-05  9.8843072836677379e-05  1.0013642133418125e-04  1.0144669312522497e-04 
 1.0277410964885979e-04  1.0411889524163760e-04  1.0548127717552429e-04  1.0686148569630925e-04 
 1.0825975406251761e-04  1.0967631858483120e-04  1.1111141866602588e-04  1.1256529684143113e-04 
 1.1403819881991879e-04  1.1553037352542897e-04  1.1704207313903840e-04  1.1857355314157979e-04 
 1.2012507235681864e-04  1.2169689299519506e-04  1.2328928069813808e-04  1.2490250458295957e-04 
 1.2653683728833554e-04  1.2819255502038318e-04  1.2986993759933990e-04  1.3156926850685396e-04 
 1.3329083493389323e-04  1.3503492782928144e-04  1.3680184194886897e-04  1.3859187590534749e-04 
 1.4040533221871605e-04  1.4224251736740789e-04  1.4410374184008589e-04  1.4598932018811559e-04 
 1.4789957107872576e-04  1.4983481734886353e-04  1.5179538605975465e-04  1.5378160855217753e-04 
 1.5579382050246086e-04  1.5783236197921361e-04  1.5989757750079698e-04  1.6198981609354970e-04 
 1.6410943135077366e-04  1.6625678149249224e-04  1.6843222942599024e-04  1.7063614280714623e-04 
 1.7286889410256720e-04  1.7513086065253615e-04  1.7742242473478380e-04  1.7974397362909418e-04 
 1.8209589968275604e-04  1.8447860037687001e-04  1.8689247839352455e-04  1.8933794168384980e-04 
 1.9181540353696225e-04  1.9432528264981164e-04  1.9686800319794183e-04  1.9944399490717755e-04 
 2.0205369312624840e-04  2.0469753890036492e-04  2.0737597904575556e-04  2.1008946622517980e-04 
 2.1283845902442936e-04  2.1562342202983018e-04  2.1844482590675866e-04  2.2130314747918515e-04 
 2.2419886981025857e-04  2.2713248228394488e-04  2.3010448068773470e-04  2.3311536729643144e-04 
 2.3616565095703842e-04  2.3925584717475424e-04  2.4238647820009463e-04  2.4555807311715409e-04 
 2.4877116793302237e-04  2.5202630566837096e-04  2.5532403644922431e-04  2.5866491759993346e-04 
 2.6204951373736454e-04  2.6547839686632044e-04  2.6895214647621097e-04  2.7247134963898810e-04 
 2.7603660110836242e-04  2.7964850342031787e-04  2.8330766699494187e-04  2.8701471023958762e-04 
 2.9077025965338694e-04  2.9457494993312871e-04  2.9842942408052608e-04  3.0233433351088397e-04 
 3.0629033816319018e-04  3.1029810661164662e-04  3.1435831617865990e-04  3.1847165304931083e-04 
 3.2263881238732021e-04  3.2686049845253456e-04  3.3113742471994710e-04  3.3547031400027634e-04 
 3.3985989856212350e-04  3.4430692025572704e-04  3.4881213063833754e-04  3.5337629110123256e-04 
 3.5800017299839353e-04  3.6268455777686620e-04  3.6743023710882782e-04  3.7223801302537998e-04 
 3.7710869805209597e-04  3.8204311534633794e-04  3.8704209883637299e-04  3.9210649336230942e-04 
 3.9723715481887505e-04  4.0243495030006798e-04  4.0770075824569571e-04  4.1303546858983427e-04 
 4.1843998291122875e-04  4.2391521458566301e-04  4.2946208894032139e-04  4.3508154341017198e-04 
 4.4077452769639510e-04  4.4654200392688488e-04  4.5238494681885158e-04  4.5830434384355051e-04 
 4.6430119539316765e-04  4.7037651494988850e-04  4.7653132925717706e-04  4.8276667849330064e-04 
 4.8908361644712107e-04  4.9548321069618783e-04  5.0196654278715979e-04  5.0853470841859163e-04 
 5.1518881762610818e-04  5.2192999497000262e-04  5.2875937972529099e-04  5.3567812607425123e-04 
 5.4268740330148393e-04  5.4978839599152305e-04  5.5698230422903425e-04  5.6427034380163198e-04 
 5.7165374640535016e-04  5.7913375985280211e-04  5.8671164828406365e-04  5.9438869238031601e-04 
 6.0216618958028290e-04  6.1004545429950245e-04  6.1802781815246597e-04  6.2611463017766373e-04 
 6.3430725706557431e-04  6.4260708338964166e-04  6.5101551184026886e-04  6.5953396346187692e-04 
 6.6816387789306482e-04  6.7690671360991119e-04  6.8576394817246116e-04  6.9473707847443676e-04 
 7.0382762099621601e-04  7.1303711206112147e-04  7.2236710809506254e-04  7.3181918588957531e-04 
 7.4139494286830387e-04  7.5109599735696949e-04  7.6092398885686894e-04  7.7088057832195786e-04 
 7.8096744843955354e-04  7.9118630391471440e-04  8.0153887175833595e-04  8.1202690157902474e-04 
 8.2265216587878304e-04  8.3341646035256663e-04  8.4432160419176149e-04  8.5536944039163194e-04 
 8.6656183606279046e-04  8.7790068274674470e-04  8.8938789673557160e-04  9.0102541939577621e-04 
 9.1281521749638622e-04  9.2475928354134181e-04  9.3685963610623221e-04  9.4911832017944219e-04 
 9.6153740750775491e-04  9.7411899694648852e-04  9.8686521481420350e-04  9.9977821525205771e-04 
 1.0128601805878576e-03  1.0261133217048821e-03  1.0395398784155234e-03  1.0531421198398225e-03 
 1.0669223447889546e-03  1.0808828821537348e-03  1.0950260912982045e-03  1.1093543624583716e-03 
 1.1238701171461651e-03  1.1385758085586757e-03  1.1534739219927533e-03  1.1685669752650272e-03 
 1.1838575191374233e-03  1.1993481377482501e-03  1.2150414490489200e-03  1.2309401052463952e-03 
 1.2470467932514139e-03  1.2633642351325850e-03  1.2798951885764215e-03  1.2966424473534017e-03 
 1.3136088417901191e-03  1.3307972392476151e-03  1.3482105446059704e-03  1.3658517007552353e-03 
 1.3837236890927873e-03  1.4018295300271921e-03  1.4201722834886615e-03  1.4387550494461877e-03 
 1.4575809684314466e-03  1.4766532220695540e-03  1.4959750336167690e-03  1.5155496685052316e-03 
 1.5353804348948250e-03  1.5554706842322698e-03  1.5758238118175204e-03  1.5964432573775827e-03 
 1.6173325056478300e-03  1.6384950869609393e-03  1.6599345778435220e-03  1.6816546016205653e-03 
 1.7036588290277829e-03  1.7259509788319792e-03  1.7485348184595282e-03  1.7714141646330789e-03 
 1.7945928840165898e-03  1.8180748938688041e-03  1.8418641627052762e-03  1.8659647109690607e-03 
 1.8903806117101750e-03  1.9151159912739592e-03  1.9401750299984281e-03  1.9655619629207711e-03 
 1.9912810804930754e-03  2.0173367293074263e-03  2.0437333128304849e-03  2.0704752921476949e-03 
 2.0975671867172097e-03  2.1250135751336922e-03  2.1528190959021103e-03  2.1809884482216534e-03 
 2.2095263927799096e-03  2.2384377525574320e-03  2.2677274136428350e-03  2.2974003260585541e-03 
 2.3274615045974123e-03  2.3579160296701316e-03  2.3887690481639327e-03  2.4200257743123774e-03 
 2.4516914905765739e-03  2.4837715485379408e-03  2.5162713698026274e-03  2.5491964469177820e-03 
 2.5825523442997980e-03  2.6163446991747247e-03  2.6505792225309638e-03  2.6852617000844474e-03 
 2.7203979932564292e-03  2.7559940401640803e-03  2.7920558566240515e-03  2.8285895371691554e-03 
 2.8656012560783575e-03  2.9030972684202451e-03  2.9410839111101502e-03  2.9795676039810954e-03 
 3.0185548508687718e-03  3.0580522407106978e-03  3.0980664486597647e-03  3.1386042372123523e-03 
 3.1796724573512104e-03  3.2212780497032890e-03  3.2634280457127210e-03  3.3061295688291558e-03 
 3.3493898357116283e-03  3.3932161574482074e-03  3.4376159407915781e-03  3.4825966894108011e-03 
 3.5281660051594515e-03  3.5743315893603501e-03  3.6211012441071063e-03  3.6684828735826869e-03 
 3.7164844853952513e-03  3.7651141919314360e-03  3.8143802117273939e-03  3.8642908708577269e-03 
 3.9148546043426217e-03  3.9660799575733825e-03  4.0179755877566272e-03  4.0705502653773738e-03 
 4.1238128756812724e-03  4.1777724201762382e-03  4.2324380181537119e-03  4.2878189082298668e-03 
 4.3439244499069362e-03  4.4007641251549998e-03  4.4583475400144590e-03  4.5166844262194790e-03 
 4.5757846428426761e-03  4.6356581779613245e-03  4.6963151503453667e-03  4.7577658111674975e-03 
 4.8200205457356584e-03  4.8830898752481641e-03  4.9469844585718131e-03  5.0117150940432609e-03 
 5.0772927212939713e-03  5.1437284230990265e-03  5.2110334272501566e-03  5.2792191084532611e-03 
 5.3482969902507406e-03  5.4182787469690382e-03  5.4891762056916010e-03  5.5610013482576956e-03 
 5.6337663132873667e-03  5.7074833982328921e-03  5.7821650614570813e-03  5.8578239243387703e-03 
 5.9344727734058642e-03  6.0121245624962785e-03  6.0907924149471923e-03  6.1704896258129071e-03 
 6.2512296641117470e-03  6.3330261751023530e-03  6.4158929825897659e-03  6.4998440912616825e-03 
 6.5848936890552804e-03  6.6710561495550184e-03  6.7583460344217841e-03  6.8467780958538851e-03 
 6.9363672790801797e-03  7.0271287248858628e-03  7.1190777721712988e-03  7.2122299605443252e-03 
 7.3066010329464887e-03  7.4022069383136366e-03  7.4990638342713354e-03  7.5971880898655173e-03 
 7.6965962883289293e-03  7.7973052298837119e-03  7.8993319345806844e-03  8.0026936451757773e-03 
 8.1074078300440895e-03  8.2134921861320934e-03  8.3209646419484598e-03  8.4298433605940245e-03 
 8.5401467428313643e-03  8.6518934301946186e-03  8.7651023081399184e-03  8.8797925092370840e-03 
 8.9959834164030777e-03  9.1136946661777556e-03  9.2329461520424903e-03  9.3537580277822246e-03 
 9.4761507108915132e-03  9.6001448860250898e-03  9.7257615084936772e-03  9.8530218078054527e-03 
 9.9819472912538922e-03  1.0112559747552555e-02  1.0244881250517425e-02  1.0378934162797440e-02 
 1.0514741139653836e-02  1.0652325132788942e-02  1.0791709394225047e-02  1.0932917480234087e-02 
 1.1075973255318687e-02  1.1220900896245325e-02  1.1367724896130258e-02  1.1516470068578921e-02 
 1.1667161551879487e-02  1.1819824813251294e-02  1.1974485653148879e-02  1.2131170209622269e-02 
 1.2289904962734442e-02  1.2450716739036482e-02  1.2613632716101329e-02  1.2778680427116862e-02 
 1.2945887765539075e-02  1.3115282989806128e-02  1.3286894728114102e-02  1.3460751983255232e-02 
 1.3636884137519414e-02  1.3815320957659940e-02  1.3996092599924110e-02  1.4179229615149723e-02 
 1.4364762953928233e-02  1.4552723971835482e-02  1.4743144434730864e-02  1.4936056524125824e-02 
 1.5131492842622635e-02  1.5329486419424252e-02  1.5530070715916413e-02  1.5733279631322632e-02 
 1.5939147508433275e-02  1.6147709139409556e-02  1.6358999771663506e-02  1.6573055113814870e-02 
 1.6789911341725944e-02  1.7009605104615397e-02  1.7232173531252021e-02  1.7457654236229667e-02 
 1.7686085326324139e-02  1.7917505406933355e-02  1.8151953588601742e-02  1.8389469493630007e-02 
 1.8630093262771406e-02  1.8873865562015642e-02  1.9120827589461504e-02  1.9371021082279387e-02 
 1.9624488323765073e-02  1.9881272150485661e-02  2.0141415959519033e-02  2.0404963715788083e-02 
 2.0671959959490886e-02  2.0942449813628108e-02  2.1216478991628891e-02  2.1494093805076549e-02 
 2.1775341171535265e-02  2.2060268622479395e-02  2.2348924311326294e-02  2.2641357021574413e-02 
 2.2937616175047797e-02  2.3237751840248507e-02  2.3541814740818318e-02  2.3849856264111121e-02 
 2.4161928469877549e-02  2.4478084099063092e-02  2.4798376582721583e-02  2.5122860051045089e-02 
 2.5451589342512061e-02  2.5784620013155159e-02  2.6122008345950375e-02  2.6463811360328961e-02 
 2.6810086821813874e-02  2.7160893251782298e-02  2.7516289937355800e-02  2.7876336941420148e-02 
 2.8241095112775977e-02  2.8610626096422401e-02  2.8984992343975179e-02  2.9364257124221176e-02 
 2.9748484533810939e-02  3.0137739508091187e-02  3.0532087832079065e-02  3.0931596151579858e-02 
 3.1336331984450461e-02  3.1746363732009938e-02  3.2161760690599540e-02  3.2582593063293960e-02 
 3.3008931971765791e-02  3.3440849468305313e-02  3.3878418547997426e-02  3.4321713161058094e-02 
 3.4770808225331955e-02  3.5225779638953778e-02  3.5686704293175352e-02  3.6153660085360285e-02 
 3.6626725932148843e-02  3.7105981782795096e-02  3.7591508632678454e-02  3.8083388536992169e-02 
 3.8581704624610816e-02  3.9086541112139182e-02  3.9597983318145250e-02  4.0116117677579111e-02 
 4.0641031756380723e-02  4.1172814266278758e-02  4.1711555079783066e-02  4.2257345245373397e-02 
 4.2810277002886768e-02  4.3370443799106262e-02  4.3937940303553621e-02  4.4512862424488826e-02 
 4.5095307325118690e-02  4.5685373440017697e-02  4.6283160491763675e-02  4.6888769507791153e-02 
 4.7502302837465260e-02  4.8123864169378978e-02  4.8753558548876808e-02  4.9391492395807549e-02 
 5.0037773522509710e-02  5.0692511152031917e-02  5.1355815936591893e-02  5.2027799976276969e-02 
 5.2708576837989227e-02  5.3398261574638617e-02  5.4096970744587150e-02  5.4804822431347600e-02 
 5.5521936263539670e-02  5.6248433435107860e-02  5.6984436725803292e-02  5.7730070521933859e-02 
 5.8485460837385782e-02  5.9250735334920292e-02  6.0026023347748869e-02  6.0811455901390969e-02 
 6.1607165735817600e-02  6.2413287327884544e-02  6.3229956914059568e-02  6.4057312513446471e-02 
 6.4895493951110758e-02  6.5744642881710336e-02  6.6604902813435535e-02  6.7476419132262308e-02 
 6.8359339126522839e-02  6.9253812011797672e-02  7.0159988956133193e-02  7.1078023105589860e-02 
 7.2008069610123945e-02  7.2950285649808322e-02  7.3904830461396245e-02  7.4871865365232784e-02 
 7.5851553792518331e-02  7.6844061312928869e-02  7.7849555662597644e-02  7.8868206772462798e-02 
 7.9900186796986475e-02  8.0945670143249007e-02  8.2004833500424285e-02  8.3077855869640560e-02 
 8.4164918594232141e-02  8.5266205390386790e-02  8.6381902378194236e-02  8.7512198113100959e-02 
 8.8657283617776222e-02  8.9817352414395799e-02  9.0992600557347383e-02  9.2183226666364360e-02 
 9.3389431960092958e-02  9.4611420290098697e-02  9.5849398175317777e-02  9.7103574836959333e-02 
 9.8374162233864318e-02  9.9661375098326774e-02  1.0096543097238456e-01  1.0228655024458418e-01 
 1.0362495618722700e-01  1.0498087499410289e-01  1.0635453581871743e-01  1.0774617081301940e-01 
 1.0915601516663509e-01  1.1058430714661592e-01  1.1203128813770577e-01  1.1349720268313621e-01 
 1.1498229852595440e-01  1.1648682665089248e-01  1.1801104132678449e-01  1.1955520014953840e-01 
 1.2111956408567053e-01  1.2270439751640942e-01  1.2430996828237703e-01  1.2593654772885401e-01 
 1.2758441075163832e-01  1.2925383584350292e-01  1.3094510514126168e-01  1.3265850447345134e-01 
 1.3439432340863708e-01  1.3615285530435037e-01  1.3793439735666707e-01  1.3973925065043441e-01 
 1.4156772021015443e-01  1.4342011505153487e-01  1.4529674823371277e-01  1.4719793691216249e-01 
 1.4912400239229565e-01  1.5107527018376268e-01  1.5305207005546453e-01  1.5505473609128448e-01 
 1.5708360674654914e-01  1.5913902490522816e-01  1.6122133793788240e-01  1.6333089776037055e-01 
 1.6546806089332383e-01  1.6763318852239778e-01  1.6982664655931523e-01  1.7204880570370504e-01 
 1.7430004150575160e-01  1.7658073442966354e-01  1.7889126991797338e-01  1.8123203845667785e-01 
 1.8360343564123130e-01  1.8600586224340204e-01  1.8843972427900388e-01  1.9090543307651364e-01 
 1.9340340534658673e-01  1.9593406325248219e-01  1.9849783448140937e-01  2.0109515231680791e-01 
 2.0372645571157394e-01  2.0639218936224393e-01  2.0909280378414982e-01  2.1182875538755602e-01 
 2.1460050655479562e-01  2.1740852571841299e-01  2.2025328744033004e-01  2.2313527249204865e-01 
 2.2605496793590199e-01  2.2901286720736916e-01  2.3200947019846713e-01  2.3504528334223365e-01 
 2.3812081969831550e-01  2.4123659903967698e-01  2.4439314794044259e-01  2.4759099986488947e-01 
 2.5083069525760404e-01  2.5411278163481849e-01  2.5743781367694224e-01  2.6080635332230423e-01 
 2.6421896986212257e-01  2.6767624003671381e-01  2.7117874813296661e-01  2.7472708608308555e-01 
 2.7832185356462957e-01  2.8196365810185897e-01  2.8565311516840836e-01  2.8939084829130318e-01 
 2.9317748915633757e-01  2.9701367771483012e-01  3.0090006229177774e-01  3.0483729969542389e-01 
 3.0882605532826091e-01  3.1286700329948419e-01  3.1696082653891894e-01  3.2110821691243613e-01 
 3.2530987533888017e-01  3.2956651190852543e-01  3.3387884600308398e-01  3.3824760641728047e-01 
 3.4267353148202345e-01  3.4715736918918311e-01  3.5169987731800384e-01  3.5630182356317103e-01 
 3.6096398566455318e-01  3.6568715153864190e-01  3.7047211941171143e-01  3.7531969795472098e-01 
 3.8023070641998213e-01  3.8520597477961410e-01  3.9024634386581131e-01  3.9535266551294590e-01 
 4.0052580270152971e-01  4.0576662970406030e-01  4.1107603223277467e-01  4.1645490758933718e-01 
 4.2190416481648590e-01  4.2742472485166066e-01  4.3301752068264754e-01  4.3868349750525332e-01 
 4.4442361288304666e-01  4.5023883690918848e-01  4.5613015237037990e-01  4.6209855491295582e-01 
 4.6814505321115130e-01  4.7427066913756999e-01  4.8047643793588296e-01  4.8676340839578752e-01 
 4.9313264303025495e-01  4.9958521825509788e-01  5.0612222457088707e-01  5.1274476674724867e-01 
 5.1945396400957267e-01  5.2625095022816493e-01  5.3313687410987487e-01  5.4011289939222584e-01 
 5.4718020504009501e-01  5.5433998544495777e-01  5.6159345062674348e-01  5.6894182643833191e-01 
 5.7638635477272504e-01  5.8392829377292998e-01  5.9156891804458844e-01  5.9930951887138761e-01 
 6.0715140443329063e-01  6.1509590002762216e-01  6.2314434829304588e-01  6.3129810943647502e-01 
 6.3955856146294965e-01  6.4792710040852253e-01  6.5640514057619370e-01  6.6499411477493009e-01 
 6.7369547456181489e-01  6.8251069048735979e-01  6.9144125234403853e-01  7.0048866941806065e-01 
 7.0965447074444499e-01  7.1894020536543157e-01  7.2834744259227224e-01  7.3787777227044826e-01 
 7.4753280504835840e-01  7.5731417264952217e-01  7.6722352814834471e-01  7.7726254624949054e-01 
 7.8743292357091266e-01  7.9773637893058458e-01  8.0817465363698571e-01  8.1874951178338529e-01 
 8.2946274054597935e-01  8.4031615048592723e-01  8.5131157585534234e-01  8.6245087490727956e-01 
 8.7373593020979257e-01  8.8516864896408709e-01  8.9675096332684368e-01  9.0848483073675634e-01 
 9.2037223424534531e-01  9.3241518285209679e-01  9.4461571184398863e-01  9.5697588313945892e-01 
 9.6949778563687483e-01  9.8218353556756188e-01  9.9503527685345172e-01  1.0080551814694101e+00 
 1.0212454498103054e+00  1.0346083110628819e+00  1.0481460235824958e+00  1.0618608752747840e+00 
 1.0757551839823272e+00  1.0898312978763629e+00  1.1040915958536437e+00  1.1185384879384686e+00 
 1.1331744156899848e+00  1.1480018526148172e+00  1.1630233045850973e+00  1.1782413102619602e+00 
 1.1936584415245854e+00  1.2092773039048512e+00  1.2251005370276735e+00  1.2411308150571116e+00 
 1.2573708471483056e+00  1.2738233779053318e+00  1.2904911878450471e+00  1.3073770938670020e+00 
 1.3244839497295045e+00  1.3418146465319107e+00  1.3593721132032324e+00  1.3771593169971201e+00 
 1.3951792639933527e+00  1.4134349996058617e+00  1.4319296090974161e+00  1.4506662181010390e+00 
 1.4696479931482469e+00  1.4888781422042014e+00  1.5083599152098623e+00  1.5280966046312361e+00 
 1.5480915460158104e+00  1.5683481185562691e+00  1.5888697456615841e+00  1.6096598955355792e+00 
 1.6307220817630665e+00  1.6520598639036479e+00  1.6736768480932915e+00  1.6955766876537752e+00 
 1.7177630837101125e+00  1.7402397858160359e+00  1.7630105925877011e+00  1.7860793523456497e+00 
 1.8094499637651862e+00  1.8331263765352650e+00  1.8571125920259963e+00  1.8814126639648876e+00 
 1.9060306991219331e+00  1.9309708580036680e+00  1.9562373555563024e+00  1.9818344618780603e+00 
 2.0077665029408331e+00  2.0340378613212819e+00  2.0606529769415003e+00  2.0876163478193757e+00 
 2.1149325308287610e+00  2.1426061424696008e+00  2.1706418596481316e+00  2.1990444204672768e+00 
 2.2278186250274188e+00  2.2569693362376149e+00  2.2865014806374404e+00  2.3164200492295883e+00 
 2.3467300983233601e+00  2.3774367503891929e+00  2.4085451949243710e+00  2.4400606893300614e+00 
 2.4719885597998297e+00  2.5043342022197761e+00  2.5371030830804551e+00  2.5703007404007252e+00 
 2.6039327846636877e+00  2.6380048997648702e+00  2.6725228439728204e+00  2.7074924509022642e+00 
 2.7429196305000096e+00  2.7788103700437188e+00  2.8151707351538029e+00  2.8520068708185065e+00 
 2.8893250024324302e+00  2.9271314368486392e+00  2.9654325634445304e+00  3.0042348552016613e+00 
 3.0435448697996899e+00  3.0833692507246462e+00  3.1237147283916920e+00  3.1645881212825793e+00 
 3.2059963370979889e+00  3.2479463739249499e+00  3.2904453214195306e+00  3.3335003620050094e+00 
 3.3771187720857205e+00  3.4213079232767831e+00  3.4660752836499298e+00  3.5114284189956022e+00 
 3.5573749941016231e+00  3.6039227740485447e+00  3.6510796255219651e+00  3.6988535181420210e+00 
 3.7472525258102727e+00  3.7962848280742096e+00  3.8459587115096161e+00  3.8962825711210214e+00 
 3.9472649117604761e+00  3.9989143495648904e+00  4.0512396134121840e+00  4.1042495463964865e+00 
 4.1579531073226415e+00  4.2123593722202637e+00  4.2674775358776147e+00  4.3233169133955380e+00 
 4.3798869417617450e+00  4.4371971814456570e+00  4.4952573180141924e+00  4.5540771637686195e+00 
 4.6136666594028668e+00  4.6740358756835274e+00  4.7351950151518354e+00  4.7971544138479256e+00 
 4.8599245430576490e+00  4.9235160110822376e+00  4.9879395650311462e+00  5.0532060926383213e+00 
 5.1193266241022730e+00  5.1863123339501902e+00  5.2541745429264708e+00  5.3229247199059486e+00 
 5.3925744838321661e+00  5.4631356056810016e+00  5.5346200104499976e+00  5.6070397791736806e+00 
 5.6804071509653413e+00  5.7547345250854338e+00  5.8300344630370899e+00  5.9063196906890463e+00 
 5.9836031004263415e+00  6.0618977533291618e+00  6.1412168813801982e+00  6.2215738897008785e+00 
 6.3029823588168652e+00  6.3854560469532009e+00  6.4690088923594740e+00  6.5536550156654227e+00 
 6.6394087222673530e+00  6.7262845047457800e+00  6.8142970453147180e+00  6.9034612183029997e+00 
 6.9937920926680928e+00  7.0853049345427355e+00  7.1780152098150287e+00  7.2719385867421504e+00 
 7.3670909385983476e+00  7.4634883463575585e+00  7.5611471014111284e+00  7.6600837083210971e+00 
 7.7603148876095132e+00  7.8618575785842353e+00  7.9647289422017193e+00  8.0689463639672621e+00 
 8.1745274568731876e+00  8.2814900643754896e+00  8.3898522634094199e+00  8.4996323674445247e+00 
 8.6108489295796780e+00  8.7235207456785808e+00  8.8376668575463437e+00  8.9533065561475187e+00 
 9.0704593848664175e+00  9.1891451428099291e+00  9.3093838881536310e+00  9.4311959415316657e+00 
 9.5546018894709750e+00  9.6796225878704849e+00  9.8062791655257815e+00  9.9345930276999450e+00 
 1.0064585859741083e+01  1.0196279630747204e+01  1.0329696597279055e+01  1.0464859307121523e+01 
 1.0601790603094271e+01  1.0740513626912231e+01  1.0881051823096598e+01  1.1023428942937025e+01 
 1.1167669048505656e+01  1.1313796516723597e+01  1.1461836043480796e+01  1.1611812647809620e+01 
 1.1763751676113163e+01  1.1917678806448835e+01  1.2073620052868025e+01  1.2231601769812533e+01 
 1.2391650656568538e+01  1.2553793761778826e+01  1.2718058488014103e+01  1.2884472596404061e+01 
 1.3053064211329101e+01  1.3223861825173413e+01  1.3396894303140249e+01  1.3572190888130223e+01 
 1.3749781205683416e+01  1.3929695268986178e+01  1.4111963483943446e+01  1.4296616654317317e+01 
 1.4483685986933095e+01  1.4673203096953241e+01  1.4865200013220413e+01  1.5059709183670433e+01 
 1.5256763480816060e+01  1.5456396207302516e+01  1.5658641101535725e+01  1.5863532343384176e+01 
 1.6071104559955398e+01  1.6281392831448038e+01  1.6494432697080480e+01  1.6710260161097075e+01 
 1.6928911698852932e+01  1.7150424262978344e+01  1.7374835289623867e+01  1.7602182704787122e+01 
 1.7832504930722418e+01  1.8065840892434064e+01  1.8302230024254978e+01  1.8541712276511070e+01 
 1.8784328122272960e+01  1.9030118564196034e+01  1.9279125141449978e+01  1.9531389936739011e+01 
 1.9786955583413949e+01  2.0045865272677354e+01  2.0308162760882940e+01  2.0573892376930505e+01 
 2.0843099029757632e+01  2.1115828215929373e+01  2.1392126027327322e+01  2.1672039158939217e+01 
 2.1955614916750527e+01  2.2242901225739253e+01  2.2533946637975426e+01  2.2828800340826348e+01 
 2.3127512165269625e+01  2.3430132594314550e+01  2.3736712771533892e+01  2.4047304509707299e+01 
 2.4361960299577760e+01  2.4680733318722670e+01  2.5003677440540972e+01  2.5330847243357905e+01 
 2.5662298019648826e+01  2.5998085785383818e+01  2.6338267289494503e+01  2.6682900023464736e+01 
 2.7032042231046823e+01  2.7385752918104824e+01  2.7744091862586732e+01  2.8107119624627039e+01 
 2.8474897556781620e+01  2.8847487814396256e+01  2.9224953366111340e+01  2.9607358004503510e+01 
 2.9994766356866819e+01  3.0387243896134887e+01  3.0784856951945979e+01  3.1187672721852888e+01 
 3.1595759282679467e+01  3.2009185602025788e+01  3.2428021549923798e+01  3.2852337910645581e+01 
 3.3282206394666005e+01  3.3717699650782002e+01  3.4158891278390364e+01  3.4605855839926242e+01 
 3.5058668873464349e+01  3.5517406905485160e+01  3.5982147463807799e+01  3.6452969090692811e+01 
 3.6929951356115744e+01  3.7413174871214721e+01  3.7902721301913914e+01  3.8398673382725256e+01 
 3.8901114930730849e+01  3.9410130859748158e+01  3.9925807194680672e+01  4.0448231086056389e+01 
 4.0977490824756337e+01  4.1513675856936068e+01  4.2056876799142181e+01  4.2607185453626791e+01 
 4.3164694823862284e+01  4.3729499130259157e+01  4.4301693826089483e+01  4.4881375613618808e+01 
 4.5468642460448784e+01  4.6063593616074343e+01  4.6666329628656818e+01  4.7276952362016921e+01 
 4.7895565012849929e+01  4.8522272128166172e+01  4.9157179622959795e+01  4.9800394798108528e+01 
 5.0452026358507908e+01  5.1112184431442572e+01  5.1780980585198094e+01  5.2458527847916265e+01 
 5.3144940726697094e+01  5.3840335226950842e+01  5.4544828872003151e+01  5.5258540722956795e+01 
 5.5981591398813286e+01  5.6714103096857890e+01  5.7456199613310808e+01  5.8208006364249691e+01 
 5.8969650406804824e+01  5.9741260460632176e+01  6.0522966929667348e+01  6.1314901924164154e+01 
 6.2117199283021549e+01  6.2929994596402707e+01  6.3753425228650144e+01  6.4587630341500542e+01 
 6.5432750917603443e+01  6.6288929784347715e+01  6.7156311637999593e+01  6.8035043068156824e+01 
 6.8925272582522553e+01  6.9827150632003537e+01  7.0740829636136723e+01  7.1666464008848536e+01 
 7.2604210184550851e+01  7.3554226644579401e+01  7.4516673943977054e+01  7.5491714738628133e+01 
 7.6479513812747626e+01  7.7480238106730113e+01  7.8494056745363096e+01  7.9521141066409513e+01 
 8.0561664649564136e+01  8.1615803345789104e+01  8.2683735307033004e+01  8.3765641016339103e+01 
 8.4861703318347281e+01  8.5972107450195310e+01  8.7097041072824382e+01  8.8236694302694119e+01 
 8.9391259743912897e+01  9.0560932520788398e+01  9.1745910310803538e+01  9.2946393378025348e+01 
 9.4162584606949423e+01  9.5394689536788164e+01  9.6642916396207198e+01  9.7907476138516685e+01 
 9.9188582477322853e+01  1.0048645192264610e+02  1.0180130381751175e+02  1.0313336037501952e+02 
 1.0448284671589803e+02  1.0584999090655083e+02  1.0723502399760004e+02  1.0863818006293457e+02 
 1.1005969623926913e+02  1.1149981276622084e+02  1.1295877302691039e+02  1.1443682358909449e+02 
 1.1593421424683565e+02  1.1745119806271919e+02 
  </PP_R>
  <PP_RAB>
 6.7958534614712318e-07  6.8847763026112820e-07  6.9748626873329076e-07  7.0661278404495388e-07 
 7.1585871859892753e-07  7.2522563498015803e-07  7.3471511621980666e-07  7.4432876606278946e-07 
 7.5406820923881151e-07  7.6393509173695003e-07  7.7393108108383170e-07  7.8405786662544731e-07 
 7.9431715981265596e-07  8.0471069449042492e-07  8.1524022719085269e-07  8.2590753743002563e-07 
 8.3671442800876404e-07  8.4766272531729721e-07  8.5875427964392821e-07  8.6999096548773754e-07 
 8.8137468187537678e-07  8.9290735268200991e-07  9.0459092695645213e-07  9.1642737925056508e-07 
 9.2841870995295619e-07  9.4056694562705552e-07  9.5287413935360631e-07  9.6534237107764048e-07 