  <PP_INFO>

############################################################
#    Opium Parameter File                                  #
############################################################
#-----------------------------------------------------------
#Command line   : opium Sc Sc.log ae ps nl tc2 ke upf rpt 
 
#Opium version  : 4.1 
#Compile Host   : andes-login5.olcf.ornl.gov 
#Compile OS     : Linux 4.18.0-348.12.2.el8_5.x86_64 x86_64 
#Compile Date   : Thu Jun 30 15:38:05 EDT 2022 
#-----------------------------------------------------------
#Execution Host : andes-login5.olcf.ornl.gov 
#Execution Date : Thu Jun 30 16:16:42 2022
 
#-----------------------------------------------------------
############################################################
[Atom]
Sc
8            
100   2.00  -
200   2.00  -
210   6.00  -
300   2.00  -
310   6.00  -
320   1.00  -
400   0.00  -
410   0.00  -

[Pseudo]
5 1.736 1.736 1.691  1.736 1.736
g

[Gaussinfo]
11 3
2 2 4
2 11.49466541  153.96530175
2  5.01031394   14.93675657
2 11.45126730   97.21725690
2  4.76798446   10.81704018
1 16.02394388   11.00000000
3 14.08647403  176.26338271
2 11.93985121  -83.68149599
2  3.69440111    0.43282764

[KBdesign]
s

[Relativity]
nrl

[XC]
pbe

[Configs]
7

300  2.00 -
310  6.00 -
320  1.00 -
400  2.00 -
410  0.00 -

300  2.00 -
310  6.00 -
320  2.00 -
400  1.00 -
410  0.00 -

300  2.00 -
310  6.00 -
320  3.00 -
400  0.00 -
410  0.00 -

300  2.00 -
310  6.00 -
320  1.00 -
400  1.00 -
410  0.00 -

300  2.00 -
310  6.00 -
320  2.00 -
400  0.00 -
410  0.00 -

300  2.00 -
310  6.00 -
320  1.00 -
400  0.00 -
410  0.00 -

300  2.00 -
310  6.00 -
320  0.00 -
400  0.00 -
410  0.00 -

############################################################
  </PP_INFO>



<PP_HEADER>
   0         Version Number
   Sc        Element
   NC        Norm - Conserving pseudopotential
    F      Nonlinear Core Correction
SLA  PW   PBE  PBE     PBE  Exchange-Correlation functional
 11          Z valence
 0          Total energy
 0.000000   0.000000     Suggested cutoff for wfc and rho
 2           Max angular momentum component
 1154           Number of points in mesh
 3  2     Number of Wavefuncitons, Number of Projectors
 Wavefunctions         nl  l   occ
                       S  0  2.000000
                       P  1  6.000000
                       D  2  1.000000
</PP_HEADER>
<PP_MESH>
  <PP_R>
 3.6246012433429738e-05  3.6720286698443158e-05  3.7200766779306448e-05  3.7687533878296864e-05 
 3.8180670260212692e-05  3.8680259266276216e-05  3.9186385328218464e-05  3.9699133982548567e-05 
 4.0218591885009504e-05  4.0744846825223146e-05  4.1277987741526928e-05  4.1818104736004630e-05 
 4.2365289089713856e-05  4.2919633278112730e-05  4.3481230986688523e-05  4.4050177126790557e-05 
 4.4626567851670704e-05  4.5210500572733338e-05  4.5802073975998117e-05  4.6401388038778218e-05 
 4.7008544046576664e-05  4.7623644610203866e-05  4.8246793683119063e-05  4.8878096578998795e-05 
 4.9517659989534934e-05  5.0165592002466124e-05  5.0822002119844687e-05  5.1487001276542786e-05 
 5.2160701859000669e-05  5.2843217724220240e-05  5.3534664219007174e-05  5.4235158199464804e-05 
 5.4944818050743100e-05  5.5663763707045919e-05  5.6392116671900370e-05  5.7130000038691066e-05 
 5.7877538511463220e-05  5.8634858425997957e-05  5.9402087771163328e-05  6.0179356210544731e-05 
 6.0966795104358410e-05  6.1764537531651650e-05  6.2572718312793263e-05  6.3391474032258857e-05 
 6.4220943061713741e-05  6.5061265583398121e-05  6.5912583613818190e-05  6.6775041027747318e-05 
 6.7648783582541206e-05  6.8533958942771248e-05  6.9430716705180004e-05  7.0339208423963776e-05 
 7.1259587636385302e-05  7.2192009888722087e-05  7.3136632762554036e-05  7.4093615901395135e-05 
 7.5063121037673519e-05  7.6045312020064769e-05  7.7040354841182622e-05  7.8048417665632191e-05 
 7.9069670858429949e-05  8.0104287013796279e-05  8.1152440984323871e-05  8.2214309910528483e-05 
 8.3290073250785981e-05  8.4379912811661300e-05  8.5484012778634145e-05  8.6602559747226877e-05 
 8.7735742754539269e-05  8.8883753311196756e-05  9.0046785433715745e-05  9.1225035677293105e-05 
 9.2418703169024332e-05  9.3627989641556573e-05  9.4853099467181909e-05  9.6094239692376778e-05 
 9.7351620072793211e-05  9.8625453108708254e-05  9.9915954080936862e-05  1.0122334108721468e-04 
 1.0254783507905759e-04  1.0388965989910264e-04  1.0524904231893806e-04  1.0662621207742831e-04 
 1.0802140191954032e-04  1.0943484763567822e-04  1.1086678810153198e-04  1.1231746531844861e-04 
 1.1378712445433045e-04  1.1527601388506944e-04  1.1678438523652310e-04  1.1831249342703984e-04 
 1.1986059671054094e-04  1.2142895672016593e-04  1.2301783851248929e-04  1.2462751061231562e-04 
 1.2625824505806108e-04  1.2791031744772808e-04  1.2958400698548267e-04  1.3127959652884028e-04 
 1.3299737263646941e-04  1.3473762561662072e-04  1.3650064957618980e-04  1.3828674247042214e-04 
 1.4009620615326770e-04  1.4192934642839566e-04  1.4378647310087561e-04  1.4566790002953534e-04 
 1.4757394518000373e-04  1.4950493067844781e-04  1.5146118286601273e-04  1.5344303235397430e-04 
 1.5545081407961295e-04  1.5748486736281902e-04  1.5954553596343878e-04  1.6163316813937000e-04 
 1.6374811670541938e-04  1.6589073909292832e-04  1.6806139741017999e-04  1.7026045850359635e-04 
 1.7248829401973618e-04  1.7474528046810433e-04  1.7703179928478212e-04  1.7934823689689182e-04 
 1.8169498478790328e-04  1.8407243956379551e-04  1.8648100302008422e-04  1.8892108220972618e-04 
 1.9139308951191203e-04  1.9389744270175948e-04  1.9643456502091815e-04  1.9900488524909866e-04 
 2.0160883777653734e-04  2.0424686267740856e-04  2.0691940578419963e-04  2.0962691876305639e-04 
 2.1236985919011645e-04  2.1514869062884043e-04  2.1796388270835541e-04  2.2081591120282342e-04 
 2.2370525811184772e-04  2.2663241174193308e-04  2.2959786678900993e-04  2.3260212442203926e-04 
 2.3564569236771143e-04  2.3872908499625328e-04  2.4185282340835786e-04  2.4501743552325157e-04 
 2.4822345616791383e-04  2.5147142716746440e-04  2.5476189743673278e-04  2.5809542307302568e-04 
 2.6147256745011002e-04  2.6489390131342346e-04  2.6836000287653195e-04  2.7187145791884957e-04 
 2.7542885988463564e-04  2.7903280998328955e-04  2.8268391729095569e-04  2.8638279885345909e-04 
 2.9013007979058748e-04  2.9392639340173812e-04  2.9777238127294694e-04  3.0166869338531791e-04 
 3.0561598822487169e-04  3.0961493289383108e-04  3.1366620322336309e-04  3.1777048388779571e-04 
 3.2192846852032987e-04  3.2614085983026514e-04  3.3040836972175823e-04  3.3473171941413818e-04 
 3.3911163956379300e-04  3.4354887038765290e-04  3.4804416178828756e-04  3.5259827348064322e-04 
 3.5721197512043516e-04  3.6188604643422144e-04  3.6662127735117894e-04  3.7141846813660293e-04 
 3.7627842952715383e-04  3.8120198286787391e-04  3.8618996025099618e-04  3.9124320465657039e-04 
 3.9636257009492823e-04  4.0154892175101341e-04  4.0680313613059981e-04  4.1212610120842344e-04 
 4.1751871657825086e-04  4.2298189360491495e-04  4.2851655557833615e-04  4.3412363786956139e-04 
 4.3980408808884234e-04  4.4555886624578656e-04  4.5138894491159959e-04  4.5729530938345205e-04 
 4.6327895785099732e-04  4.6934090156506826e-04  4.7548216500858031e-04  4.8170378606967245e-04 
 4.8800681621711199e-04  4.9439232067799562e-04  5.0086137861777538e-04  5.0741508332264001e-04 
 5.1405454238428333e-04  5.2078087788708940e-04  5.2759522659776687e-04  5.3449874015746711e-04 
 5.4149258527641259e-04  5.4857794393107498e-04  5.5575601356392995e-04  5.6302800728583017e-04 
 5.7039515408102291e-04  5.7785869901485088e-04  5.8541990344417201e-04  5.9308004523053130e-04 
 6.0084041895612234e-04  6.0870233614257528e-04  6.1666712547260680e-04  6.2473613301457058e-04 
 6.3291072244994631e-04  6.4119227530380477e-04  6.4958219117828924e-04  6.5808188798915186e-04 
 6.6669280220538261e-04  6.7541638909197953e-04  6.8425412295588920e-04  6.9320749739517013e-04 
 7.0227802555141111e-04  7.1146724036545987e-04  7.2077669483649131e-04  7.3020796228446833e-04 
 7.3976263661603716e-04  7.4944233259390067e-04  7.5924868610971767e-04  7.6918335446057265e-04 
 7.7924801662906224e-04  7.8944437356704778e-04  7.9977414848312006e-04  8.1023908713382612e-04 
 8.2084095811870480e-04  8.3158155317918753e-04  8.4246268750140117e-04  8.5348620002294534e-04 
 8.6465395374367296e-04  8.7596783604054383e-04  8.8742975898659321e-04  8.9904165967408017e-04 
 9.1080550054185806e-04  9.2272326970703283e-04  9.3479698130095911e-04  9.4702867580963204e-04 
 9.5942042041853668e-04  9.7197430936200543e-04  9.8469246427714983e-04  9.9757703456241969e-04 
 1.0106301977408608e-03  1.0238541598281176e-03  1.0372511557052572e-03  1.0508234494964696e-03 
 1.0645733349517077e-03  1.0785031358343405e-03  1.0926152063138708e-03  1.1069119313637989e-03 
 1.1213957271646842e-03  1.1360690415124909e-03  1.1509343542322672e-03  1.1659941775972438e-03 
 1.1812510567534139e-03  1.1967075701496666e-03  1.2123663299735544e-03  1.2282299825927569e-03 
 1.2443012090023243e-03  1.2605827252777698e-03  1.2770772830340959e-03  1.2937876698908225e-03 
 1.3107167099431004e-03  1.3278672642389915e-03  1.3452422312629914e-03  1.3628445474258813e-03 
 1.3806771875609879e-03  1.3987431654269382e-03  1.4170455342169892e-03  1.4355873870750282e-03 
 1.4543718576183200e-03  1.4734021204670946e-03  1.4926813917810686e-03  1.5122129298029792e-03 
 1.5320000354092393e-03  1.5520460526677921e-03  1.5723543694032660e-03  1.5929284177695240e-03 
 1.6137716748297086e-03  1.6348876631438723e-03  1.6562799513642982e-03  1.6779521548386117e-03 
 1.6999079362207807e-03  1.7221510060901164e-03  1.7446851235783673e-03  1.7675140970050231e-03 
 1.7906417845209262e-03  1.8140720947603145e-03  1.8378089875013843e-03  1.8618564743355047e-03 
 1.8862186193451876e-03  1.9108995397909216e-03  1.9359034068070057e-03  1.9612344461064782e-03 
 1.9868969386952701e-03  2.0128952215957082e-03  2.0392336885794830e-03  2.0659167909101999e-03 
 2.0929490380956622e-03  2.1203349986499841e-03  2.1480793008656798e-03  2.1761866335958586e-03 
 2.2046617470466499e-03  2.2335094535800002e-03  2.2627346285269741e-03  2.2923422110116983e-03 
 2.3223372047860781e-03  2.3527246790754535e-03  2.3835097694353052e-03  2.4146976786191751e-03 
 2.4462936774579456e-03  2.4783031057506225e-03  2.5107313731667726e-03  2.5435839601607706e-03 
 2.5768664188980145e-03  2.6105843741932415e-03  2.6447435244611500e-03  2.6793496426794385e-03 
 2.7144085773644503e-03  2.7499262535595919e-03  2.7859086738366763e-03  2.8223619193103707e-03 
 2.8592921506659227e-03  2.8967056092003320e-03  2.9346086178771331e-03  2.9730075823950083e-03 
 3.0119089922703533e-03  3.0513194219340275e-03  3.0912455318424436e-03  3.1316940696032038e-03 
 3.1726718711154629e-03  3.2141858617252056e-03  3.2562430573956562e-03  3.2988505658929782e-03 
 3.3420155879875183e-03  3.3857454186707499e-03  3.4300474483881377e-03  3.4749291642881476e-03 
 3.5203981514875904e-03  3.5664620943535222e-03  3.6131287778019250e-03  3.6604060886133755e-03 
 3.7083020167659186e-03  3.7568246567854136e-03  3.8059822091135111e-03  3.8557829814935538e-03 
 3.9062353903746064e-03  3.9573479623338497e-03  4.0091293355175991e-03  4.0615882611011664e-03 
 4.1147336047678363e-03  4.1685743482071727e-03  4.2231195906329662e-03  4.2783785503210086e-03 
 4.3343605661670115e-03  4.3910750992648944e-03  4.4485317345057352e-03  4.5067401821976445e-03 
 4.5657102797068225e-03  4.6254519931201070e-03  4.6859754189292483e-03  4.7472907857372629e-03 
 4.8094084559870782e-03  4.8723389277128141e-03  4.9360928363139699e-03  5.0006809563528419e-03 
 5.0661142033754424e-03  5.1324036357562539e-03  5.1995604565671311e-03  5.2675960154706198e-03 
 5.3365218106381125e-03  5.4063494906930396e-03  5.4770908566795298e-03  5.5487578640568041e-03 
 5.6213626247196852e-03  5.6949174090455299e-03  5.7694346479679583e-03  5.8449269350777117e-03 
 5.9214070287509782e-03  5.9988878543056250e-03  6.0773825061855840e-03  6.1569042501738473e-03 
 6.2374665256344167e-03  6.3190829477835922e-03  6.4017673099909704e-03  6.4855335861105645e-03 
 6.5703959328424141e-03  6.6563686921250857e-03  6.7434663935595288e-03  6.8317037568645838e-03 
 6.9210956943646668e-03  7.0116573135099742e-03  7.1034039194296872e-03  7.1963510175185727e-03 
 7.2905143160574299e-03  7.3859097288678363e-03  7.4825533780015956e-03  7.5804615964654379e-03 
 7.6796509309813151e-03  7.7801381447828392e-03  7.8819402204483146e-03  7.9850743627708255e-03 
 8.0895580016658915e-03  8.1954087951171730e-03  8.3026446321607002e-03  8.4112836359081546e-03 
 8.5213441666097435e-03  8.6328448247571157e-03  8.7458044542268777e-03  8.8602421454652622e-03 
 8.9761772387144650e-03  9.0936293272811802e-03  9.2126182608479254e-03  9.3331641488276842e-03 
 9.4552873637624192e-03  9.5790085447661297e-03  9.7043486010128712e-03  9.8313287152704733e-03 
 9.9599703474804700e-03  1.0090295238384882e-02  1.0222325413200463e-02  1.0356083185340995e-02 
 1.0491591160188340e-02  1.0628872238912750e-02  1.0767949622343280e-02  1.0908846814888748e-02 
 1.1051587628510042e-02  1.1196196186744403e-02  1.1342696928782354e-02  1.1491114613597983e-02 
 1.1641474324133278e-02  1.1793801471537194e-02  1.1948121799460179e-02  1.2104461388404960e-02 
 1.2262846660134169e-02  1.2423304382135701e-02  1.2585861672146481e-02  1.2750546002735423e-02 
 1.2917385205946359e-02  1.3086407478001726e-02  1.3257641384067806e-02  1.3431115863082247e-02 
 1.3606860232644907e-02  1.3784904193972526e-02  1.3965277836918331e-02  1.4148011645057287e-02 
 1.4333136500837899e-02  1.4520683690801400e-02  1.4710684910869277e-02  1.4903172271699960e-02 
 1.5098178304115539e-02  1.5295735964599636e-02  1.5495878640867084e-02  1.5698640157506528e-02 
 1.5904054781696875e-02  1.6112157228998513e-02  1.6322982669220349e-02  1.6536566732363561e-02 
 1.6752945514643184e-02  1.6972155584588394e-02  1.7194233989222780e-02  1.7419218260325279e-02 
 1.7647146420773200e-02  1.7878056990968144e-02  1.8111988995346068e-02  1.8348981968972493e-02 
 1.8589075964224027e-02  1.8832311557557331e-02  1.9078729856366567e-02  1.9328372505930752e-02 
 1.9581281696451836e-02  1.9837500170184968e-02  2.0097071228662028e-02  2.0360038740009703e-02 
 2.0626447146363306e-02  2.0896341471377582e-02  2.1169767327835851e-02  2.1446770925358603e-02 
 2.1727399078213132e-02  2.2011699213225187e-02  2.2299719377794253e-02  2.2591508248013654e-02 
 2.2887115136896945e-02  2.3186590002711921e-02  2.3489983457423678e-02  2.3797346775248199e-02 
 2.4108731901317702e-02  2.4424191460459641e-02  2.4743778766090335e-02  2.5067547829225087e-02 
 2.5395553367606166e-02  2.5727850814950246e-02  2.6064496330316829e-02  2.6405546807599250e-02 
 2.6751059885139938e-02  2.7101093955471306e-02  2.7455708175184369e-02  2.7814962474926281e-02 
 2.8178917569528759e-02  2.8547634968269037e-02  2.8921176985265085e-02  2.9299606750006840e-02 
 2.9682988218025244e-02  3.0071386181700910e-02  3.0464866281214059e-02  3.0863495015638061e-02 
 3.1267339754177816e-02  3.1676468747555316e-02  3.2090951139544216e-02  3.2510856978655266e-02 
 3.2936257229974696e-02  3.3367223787157466e-02  3.3803829484577511e-02  3.4246148109636811e-02 
 3.4694254415235784e-02  3.5148224132406619e-02  3.5608133983111995e-02  3.6074061693211326e-02 
 3.6546086005596563e-02  3.7024286693499969e-02  3.7508744573975961e-02  3.7999541521559432e-02 
 3.8496760482102585e-02  3.9000485486793239e-02  3.9510801666356087e-02  4.0027795265440078e-02 
 4.0551553657193956e-02  4.1082165358032517e-02  4.1619720042596120e-02  4.2164308558905877e-02 
 4.2716022943717256e-02  4.3274956438074365e-02  4.3841203503068076e-02  4.4414859835800125e-02 
 4.4996022385556077e-02  4.5584789370190074e-02  4.6181260292723847e-02  4.6785535958162955e-02 
 4.7397718490533092e-02  4.8017911350139331e-02  4.8646219351050971e-02  4.9282748678815658e-02 
 4.9927606908404761e-02  5.0580903022393923e-02  5.1242747429381320e-02  5.1913251982646964e-02 
 5.2592529999056246e-02  5.3280696278210672e-02  5.3977867121849377e-02  5.4684160353504173e-02 
 5.5399695338412304e-02  5.6124593003689265e-02  5.6858975858765808e-02  5.7602968016092347e-02 
 5.8356695212114236e-02  5.9120284828521552e-02  5.9893865913776892e-02  6.0677569204924904e-02 
 6.1471527149686983e-02  6.2275873928845538e-02  6.3090745478920671e-02  6.3916279515143823e-02 
 6.4752615554731968e-02  6.5599894940466336e-02  6.6458260864579746e-02  6.7327858392956366e-02 
 6.8208834489648262e-02  6.9101338041712479e-02  7.0005519884373618e-02  7.0921532826515116e-02 
 7.1849531676504416e-02  7.2789673268355878e-02  7.3742116488236156e-02  7.4707022301316317e-02 
 7.5684553778975330e-02  7.6674876126359620e-02  7.7678156710302829e-02  7.8694565087611607e-02 
 7.9724273033720858e-02  8.0767454571724309e-02  8.1824286001784721e-02  8.2894945930929151e-02 
 8.3979615303233904e-02  8.5078477430404503e-02  8.6191718022755937e-02  8.7319525220597757e-02 
 8.8462089626030790e-02  8.9619604335158948e-02  9.0792264970723055e-02  9.1980269715161614e-02 
 9.3183819344103969e-02  9.4403117260301983e-02  9.5638369528005529e-02  9.6889784907787976e-02 
 9.8157574891826804e-02  9.9441953739646885e-02  1.0074313851433042e-01  1.0206134911920131e-01 
 1.0339680833498924e-01  1.0474974185748016e-01  1.0612037833565953e-01  1.0750894941035438e-01 
 1.0891568975338130e-01  1.1034083710720642e-01  1.1178463232512449e-01  1.1324731941196378e-01 
 1.1472914556532346e-01  1.1623036121734993e-01  1.1775122007706167e-01  1.1929197917322569e-01 
 1.2085289889779646e-01  1.2243424304992254e-01  1.2403627888052940e-01  1.2565927713748543e-01 
 1.2730351211135890e-01  1.2896926168177389e-01  1.3065680736437241e-01  1.3236643435839132e-01 
 1.3409843159486176e-01  1.3585309178543895e-01  1.3763071147187139e-01  1.3943159107611697e-01 
 1.4125603495111511e-01  1.4310435143222297e-01  1.4497685288932538e-01  1.4687385577962475e-01 
 1.4879568070112487e-01  1.5074265244681159e-01  1.5271510005954392e-01  1.5471335688766302e-01 
 1.5673776064132888e-01  1.5878865344959417e-01  1.6086638191822480e-01  1.6297129718827716e-01 
 1.6510375499544180e-01  1.6726411573016356e-01  1.6945274449854850e-01  1.7167001118406761e-01 
 1.7391629051006807e-01  1.7619196210310234e-01  1.7849741055708593e-01  1.8083302549829477e-01 
 1.8319920165121328e-01  1.8559633890524233e-01  1.8802484238228359e-01  1.9048512250520475e-01 
 1.9297759506720236e-01  1.9550268130207163e-01  1.9806080795539624e-01  2.0065240735666925e-01 
 2.0327791749235763e-01  2.0593778207992333e-01  2.0863245064281238e-01  2.1136237858642551e-01 
 2.1412802727508262e-01  2.1692986410999468e-01  2.1976836260825536e-01  2.2264400248286678e-01 
 2.2555726972381210e-01  2.2850865668018883e-01  2.3149866214341769e-01  2.3452779143153754e-01 
 2.3759655647460820e-01  2.4070547590122582e-01  2.4385507512617308e-01  2.4704588643921532e-01 
 2.5027844909505892e-01  2.5355330940448645e-01  2.5687102082668478e-01  2.6023214406278072e-01 
 2.6363724715060094e-01  2.6708690556067177e-01  2.7058170229347500e-01  2.7412222797797647e-01 
 2.7770908097144364e-01  2.8134286746056941e-01  2.8502420156391933e-01  2.8875370543571866e-01 
 2.9253200937099894e-01  2.9635975191211689e-01  3.0023757995667288e-01  3.0416614886683596e-01 
 3.0814612258010249e-01  3.1217817372150258e-01  3.1626298371727585e-01  3.2040124291003391e-01 
 3.2459365067542967e-01  3.2884091554035383e-01  3.3314375530267754e-01  3.3750289715256176e-01 
 3.4191907779535430e-01  3.4639304357609474e-01  3.5092555060564851e-01  3.5551736488849139e-01 
 3.6016926245216613e-01  3.6488202947843296e-01  3.6965646243613687e-01  3.7449336821580992e-01 
 3.7939356426604193e-01  3.8435787873162830e-01  3.8938715059352919e-01  3.9448222981065956e-01 
 3.9964397746353375e-01  4.0487326589979056e-01  4.1017097888162207e-01  4.1553801173513111e-01 
 4.2097527150164410e-01  4.2648367709100271e-01  4.3206415943686211e-01  4.3771766165402087e-01 
 4.4344513919780953e-01  4.4924756002556493e-01  4.5512590476021730e-01  4.6108116685601785e-01 
 4.6711435276643565e-01  4.7322648211424745e-01  4.7941858786386149e-01  4.8569171649588710e-01 
 4.9204692818399376e-01  4.9848529697408284e-01  5.0500791096580377e-01  5.1161587249644547e-01 
 5.1831029832723441e-01  5.2509231983206939e-01  5.3196308318872654e-01  5.3892374957256606e-01 
 5.4597549535277401e-01  5.5311951229117107e-01  5.6035700774362329e-01  5.6768920486408814e-01 
 5.7511734281133020e-01  5.8264267695834226e-01  5.9026647910450736e-01  5.9799003769053138e-01 
 6.0581465801619916e-01  6.1374166246096917e-01  6.2177239070745971e-01  6.2990819996785818e-01 
 6.3815046521329366e-01  6.4650057940621009e-01  6.5495995373577998e-01  6.6353001785639931e-01 
 6.7221222012930204e-01  6.8100802786733683e-01  6.8991892758294604e-01  6.9894642523939066e-01 
 7.0809204650526070e-01  7.1735733701231774e-01  7.2674386261670976e-01  7.3625320966360475e-01 
 7.4588698525528807e-01  7.5564681752276130e-01  7.6553435590090857e-01  7.7555127140724878e-01 
 7.8569925692434395e-01  7.9598002748589936e-01  8.0639532056660967e-01  8.1694689637579443e-01 
 8.2763653815487936e-01  8.3846605247876749e-01  8.4943726956115484e-01  8.6055204356384096e-01 
 8.7181225291008657e-01  8.8321980060207128e-01  8.9477661454250623e-01  9.0648464786045413e-01 
 9.1834587924141131e-01  9.3036231326171237e-01  9.4253598072730871e-01  9.5486893901697301e-01 
 9.6736327243001174e-01  9.8002109253850933e-01  9.9284453854419097e-01  1.0058357776399525e+00 
 1.0189970053761217e+00  1.0323304460315108e+00  1.0458383529893258e+00  1.0595230091179921e+00 
 1.0733867271569668e+00  1.0874318501075952e+00  1.1016607516290851e+00  1.1160758364396590e+00 
 1.1306795407229600e+00  1.1454743325397696e+00  1.1604627122451183e+00  1.1756472129108499e+00 
 1.1910304007537198e+00  1.2066148755690824e+00  1.2224032711702766e+00  1.2383982558337361e+00 
 1.2546025327499395e+00  1.2710188404802529e+00  1.2876499534197554e+00  1.3044986822661171e+00 
 1.3215678744946149e+00  1.3388604148393619e+00  1.3563792257808338e+00  1.3741272680397767e+00 
 1.3921075410775738e+00  1.4103230836031639e+00  1.4287769740865881e+00  1.4474723312792603e+00 
 1.4664123147410433e+00  1.4856001253742204e+00  1.5050390059644603e+00  1.5247322417288443e+00 
 1.5446831608710905e+00  1.5648951351440192e+00  1.5853715804193891e+00  1.6061159572651877e+00 
 1.6271317715304756e+00  1.6484225749378829e+00  1.6699919656838600e+00  1.6918435890467802e+00 
 1.7139811380030008e+00  1.7364083538509845e+00  1.7591290268435891e+00  1.7821469968286274e+00 
 1.8054661538978121e+00  1.8290904390441893e+00  1.8530238448281775e+00  1.8772704160523177e+00 
 1.9018342504448593e+00  1.9267194993522718e+00  1.9519303684408542e+00  1.9774711184074860e+00 
 2.0033460656997013e+00  2.0295595832451774e+00  2.0561161011907694e+00  2.0830201076512185e+00 
 2.1102761494676501e+00  2.1378888329760026e+00  2.1658628247855107e+00  2.1942028525673702e+00 
 2.2229137058537294e+00  2.2520002368471270e+00  2.2814673612405301e+00  2.3113200590480960e+00 
 2.3415633754468064e+00  2.3722024216291144e+00  2.4032423756667534e+00  2.4346884833858256e+00 
 2.4665460592533841e+00  2.4988204872755739e+00  2.5315172219075484e+00  2.5646417889752811e+00 
 2.5981997866094457e+00  2.6321968861915144e+00  2.6666388333122333e+00  2.7015314487426396e+00 
 2.7368806294177896e+00  2.7726923494333526e+00  2.8089726610552455e+00  2.8457276957424829e+00 
 2.8829636651834085e+00  2.9206868623454820e+00  2.9589036625388099e+00  2.9976205244935832e+00 
 3.0368439914516285e+00  3.0765806922722061e+00  3.1168373425523375e+00  3.1576207457617342e+00 
 3.1989377943926085e+00  3.2407954711245162e+00  3.2832008500044503e+00  3.3261610976423706e+00 
 3.3696834744223776e+00  3.4137753357297349e+00  3.4584441331939462e+00  3.5036974159480989e+00 
 3.5495428319046853e+00  3.5959881290481195e+00  3.6430411567441618e+00  3.6907098670664844e+00 
 3.7390023161405885e+00  3.7879266655053065e+00  3.8374911834921344e+00  3.8877042466225653e+00 
 3.9385743410237883e+00  3.9901100638628320e+00  4.0423201247995157e+00  4.0952133474584045e+00 
 4.1487986709200175e+00  4.2030851512315577e+00  4.2580819629374060e+00  4.3137984006296373e+00 
 4.3702438805188324e+00  4.4274279420254388e+00  4.4853602493919542e+00  4.5440505933162072e+00 
 4.6035088926060119e+00  4.6637451958554630e+00  4.7247696831431778e+00  4.7865926677527542e+00 
 4.8492245979157422e+00  4.9126760585773930e+00  4.9769577731855872e+00  5.0420806055030916e+00 
 5.1080555614435657e+00  5.1748937909315895e+00  5.2426065897870284e+00  5.3112054016340533e+00 
 5.3807018198351360e+00  5.4511075894503618e+00  5.5224346092223682e+00  5.5946949335872613e+00 
 5.6679007747118471e+00  5.7420645045575105e+00  5.8171986569711134e+00  5.8933159298032400e+00 
 5.9704291870541644e+00  6.0485514610479010e+00  6.1276959546347030e+00  6.2078760434223375e+00 
 6.2891052780366534e+00  6.3713973864116387e+00  6.4547662761094697e+00  6.5392260366709305e+00 
 6.6247909419965803e+00  6.7114754527590685e+00  6.7992942188470362e+00  6.8882620818409661e+00 
 6.9783940775214566e+00  7.0697054384103026e+00  7.1622115963448225e+00  7.2559281850858808e+00 
 7.3508710429600299e+00  7.4470562155362225e+00  7.5444999583375560e+00  7.6432187395884865e+00 
 7.7432292429980230e+00  7.8445483705792469e+00  7.9471932455058827e+00  8.0511812150060980e+00 
 8.1565298532942396e+00  8.2632569645409184e+00  8.3713805858819548e+00  8.4809189904666997e+00 
 8.5918906905462418e+00  8.7043144406020172e+00  8.8182092405153671e+00  8.9335943387785530e+00 
 9.0504892357478095e+00  9.1689136869389500e+00  9.2888877063660829e+00  9.4104315699240466e+00 
 9.5335658188150614e+00  9.6583112630202645e+00  9.7846889848166523e+00  9.9127203423399646e+00 
 1.0042426973194363e+01  1.0173830798109181e+01  1.0306954024643579e+01  1.0441819150939690e+01 
 1.0578448969524850e+01  1.0716866571163592e+01  1.0857095348760039e+01  1.0999159001311364e+01 
 1.1143081537912973e+01  1.1288887281816102e+01  1.1436600874538501e+01  1.1586247280028912e+01 
 1.1737851788886040e+01  1.1891440022632711e+01  1.2047037938045985e+01  1.2204671831543903e+01 
 1.2364368343629675e+01  1.2526154463393894e+01  1.2690057533075882e+01  1.2856105252684525e+01 
 1.3024325684679647e+01  1.3194747258714633e+01  1.3367398776441121e+01  1.3542309416376524e+01 
 1.3719508738835305e+01  1.3899026690924709e+01  1.4080893611605902e+01  1.4265140236821347e+01 
 1.4451797704689231e+01  1.4640897560765882e+01  1.4832471763377058e+01  1.5026552689018960e+01 
 1.5223173137829953e+01  1.5422366339133864e+01  1.5624165957055844e+01  1.5828606096211564e+01 
 1.6035721307471157e+01  1.6245546593798281e+01  1.6458117416165731e+01  1.6673469699548424e+01 
 1.6891639838994809e+01  1.7112664705777725e+01  1.7336581653625711e+01  1.7563428525035903e+01 
 1.7793243657669482e+01  1.8026065890830850e+01  1.8261934572031549e+01  1.8500889563640094e+01 
 1.8742971249618801e+01  1.8988220542348778e+01  1.9236678889544216e+01  1.9488388281257137e+01 
 1.9743391256973879e+01  2.0001730912804199e+01  2.0263450908764835e+01  2.0528595476158024e+01 
 2.0797209425046727e+01  2.1069338151827633e+01  2.1345027646903265e+01  2.1624324502454449e+01 
 2.1907275920314536e+01  2.2193929719946588e+01  2.2484334346525014e+01  2.2778538879122895e+01 
 2.3076593039006472e+01  2.3378547198038163e+01  2.3684452387189530e+01  2.3994360305165618e+01 
 2.4308323327142176e+01  2.4626394513617225e+01  2.4948627619378239e+01  2.5275077102587073e+01 
 2.5605798133983370e+01  2.5940846606208591e+01  2.6280279143251981e+01  2.6624153110020195e+01 
 2.6972526622032053e+01  2.7325458555240260e+01  2.7683008555981537e+01  2.8045237051057018e+01 
 2.8412205257944503e+01  2.8783975195144372e+01  2.9160609692660874e+01  2.9542172402620501e+01 
 2.9928727810029404e+01  3.0320341243671464e+01  3.0717078887149054e+01  3.1119007790068249e+01 
 3.1526195879370157e+01  3.1938711970811070e+01  3.2356625780592282e+01  3.2780007937142308e+01 
 3.3208929993053303e+01  3.3643464437173591e+01  3.4083684706858463e+01  3.4529665200381253e+01 
 3.4981481289506860e+01  3.5439209332229701e+01  3.5902926685678437e+01  3.6372711719189482e+01 
 3.6848643827551648e+01  3.7330803444424014e+01  3.7819272055929403e+01  3.8314132214425776e+01 
 3.8815467552457719e+01  3.9323362796890670e+01  3.9837903783229635e+01  4.0359177470126028e+01 
 4.0887271954073626e+01  4.1422276484297122e+01  4.1964281477835485e+01  4.2513378534822650e+01 
 4.3069660453968162e+01  4.3633221248240346e+01  4.4204156160754778e+01  4.4782561680870536e+01 
 4.5368535560497193e+01  4.5962176830615078e+01  4.6563585818011767e+01  4.7172864162237545e+01 
 4.7790114832782713e+01  4.8415442146479712e+01  4.9048951785132907e+01  4.9690750813379132e+01 
 5.0340947696781519e+01  5.0999652320160997e+01  5.1666976006166678e+01  5.2343031534089810e+01 
 5.3027933158923673e+01  5.3721796630673012e+01  5.4424739213916006e+01  5.5136879707622299e+01 
 5.5858338465230275e+01  5.6589237414987146e+01  5.7329700080554986e+01  5.8079851601886688e+01 
 5.8839818756374768e+01  5.9609729980277137e+01  6.0389715390423092e+01  6.1179906806203398e+01 
 6.1980437771848052e+01  6.2791443578995690e+01  6.3613061289557784e+01  6.4445429758883051e+01 
 6.5288689659223934e+01  6.6142983503510621e+01  6.7008455669436088e+01  6.7885252423856301e+01 
 6.8773521947509622e+01  6.9673414360059695e+01  7.0585081745466098e+01  7.1508678177686804e+01 
 7.2444359746717112e+01  7.3392284584969190e+01  7.4352612893996877e+01  7.5325506971570050e+01 
 7.6311131239103418e+01  7.7309652269444058e+01  7.8321238815022696e+01  7.9346061836373352e+01 
 8.0384294531025503e+01  8.1436112362775788e+01  8.2501693091341224e+01  8.3581216802401087e+01 
 8.4674865938031957e+01  8.5782825327540721e+01  8.6905282218701245e+01  8.8042426309399730e+01 
 8.9194449779693997e+01  9.0361547324292431e+01  9.1543916185457917e+01  9.2741756186342101e+01 