  <PP_INFO>

############################################################
#    Opium Parameter File                                  #
############################################################
#-----------------------------------------------------------
#Command line   : opium Mo Mo.log ae ps nl tc2 ke upf rpt qmcpack 
 
#Opium version  : 4.1 
#Compile Host   : andes-login7.olcf.ornl.gov 
#Compile OS     : Linux 4.18.0-348.12.2.el8_5.x86_64 x86_64 
#Compile Date   : Fri Jul  8 17:09:33 EDT 2022 
#-----------------------------------------------------------
#Execution Host : andes-login7.olcf.ornl.gov 
#Execution Date : Fri Jul  8 20:55:26 2022
 
#-----------------------------------------------------------
############################################################
[Atom]
Mo
10
100   2.00  -
200   2.00  -
210   6.00  -
300   2.00  -
310   6.00  -
320   10.0  -
400   2.00  -
410   6.00  -
420   5.00  -
500   0.00  -

[Pseudo]
4 -1 -1 -1 -1
g

[Gaussinfo]
14 4 2
3 3 3 4  4 4
2  10.07937500  180.08930300
2  4.38673000   24.72363000
2  6.32132800   16.96139200
2  9.02748700   123.68094000
2  3.91053200   18.78431400
2  6.34037300   16.93333600
2  7.37896400   48.28919100
2  2.77483000   7.94010200
2  6.39041700   16.93215400
1  10.99352700  14.00000000
3  11.01507800  153.90937800
2  10.36534300  -91.43431100
2  6.28105600   -16.94572800
2    9.121564   -82.455357
2    8.863223    82.452670
2    4.044948   -12.690183
2    3.866657    12.458423
2    7.535754   -19.308744
2    7.278976    19.318449
2    2.763205    -3.189516
2    2.772085     3.133446


[KBdesign]
s

[Relativity]
frl

[XC]
pbe

[Configs]
9

400   2.00  -
410   6.00  -
420   5.00  -
500   1.00  -

400   2.00  -
410   6.00  -
420   4.00  -
500   2.00  -

400   2.00  -
410   6.00  -
420   5.00  -
500   0.00  -

400   2.00  -
410   6.00  -
420   4.00  -
500   1.00  -

400   2.00  -
410   6.00  -
420   4.00  -
500   0.00  -

400   2.00  -
410   6.00  -
420   3.00  -
500   0.00  -

400   2.00  -
410   6.00  -
420   2.00  -
500   0.00  -

400   2.00  -
410   6.00  -
420   1.00  -
500   0.00  -

400   2.00  -
410   6.00  -
420   0.00  -
500   0.00  -

############################################################
  </PP_INFO>



<PP_HEADER>
   0         Version Number
   Mo        Element
   NC        Norm - Conserving pseudopotential
    F      Nonlinear Core Correction
SLA  PW   PBE  PBE     PBE  Exchange-Correlation functional
 14          Z valence
 0          Total energy
 0.000000   0.000000     Suggested cutoff for wfc and rho
 2           Max angular momentum component
 1172           Number of points in mesh
 5  4     Number of Wavefuncitons, Number of Projectors
 Wavefunctions         nl  l   occ
                       S  0  2.000000
                       P  1  2.000000
                       P  1  4.000000
                      3D  2  2.000000
                      3D  2  3.000000
</PP_HEADER>
<PP_MESH>
  <PP_R>
 2.8768479133239387e-05  2.9144910866841260e-05  2.9526268159747335e-05  2.9912615462247783e-05 
 3.0304018067956267e-05  3.0700542124844766e-05  3.1102254646422582e-05  3.1509223523062031e-05 
 3.1921517533471869e-05  3.2339206356321167e-05  3.2762360582015129e-05  3.3191051724625032e-05 
 3.3625352233974305e-05  3.4065335507882727e-05  3.4511075904570791e-05  3.4962648755226408e-05 
 3.5420130376736137e-05  3.5883598084582871e-05  3.6353130205912339e-05  3.6828806092770571e-05 
 3.7310706135514604e-05  3.7798911776398617e-05  3.8293505523337920e-05  3.8794570963852947e-05 
 3.9302192779195660e-05  3.9816456758661085e-05  4.0337449814085742e-05  4.0865259994536001e-05 
 4.1399976501188620e-05  4.1941689702405882e-05  4.2490491149008137e-05  4.3046473589746047e-05 
 4.3609730986975440e-05  4.4180358532536959e-05  4.4758452663844024e-05  4.5344111080180710e-05 
 4.5937432759213323e-05  4.6538517973717771e-05  4.7147468308525965e-05  4.7764386677693824e-05 
 4.8389377341894087e-05  4.9022545926036554e-05  4.9663999437118889e-05  5.0313846282311221e-05 
 5.0972196287277094e-05  5.1639160714734264e-05  5.2314852283258427e-05  5.2999385186332868e-05 
 5.3692875111647461e-05  5.4395439260650203e-05  5.5107196368354370e-05  5.5828266723405232e-05 
 5.6558772188409036e-05  5.7298836220528029e-05  5.8048583892345048e-05  5.8808141913001136e-05 
 5.9577638649609592e-05  6.0357204148950361e-05  6.1146970159448301e-05  6.1947070153438934e-05 
 6.2757639349725474e-05  6.3578814736431363e-05  6.4410735094151445e-05  6.5253541019406216e-05 
 6.6107374948402996e-05  6.6972381181108008e-05  6.7848705905633390e-05  6.8736497222943348e-05 
 6.9635905171883445e-05  7.0547081754537778e-05  7.1470180961917521e-05  7.2405358799985757e-05 
 7.3352773316022964e-05  7.4312584625337252e-05  7.5284954938324385e-05  7.6270048587881548e-05 
 7.7268032057180186e-05  7.8279074007801854e-05  7.9303345308242689e-05  8.0341019062790174e-05 
 8.1392270640778691e-05  8.2457277706226952e-05  8.3536220247863873e-05  8.4629280609546971e-05 
 8.5736643521078948e-05  8.6858496129427581e-05  8.7995028030353619e-05  8.9146431300453485e-05 
 9.0312900529620246e-05  9.1494632853929961e-05  9.2691827988958061e-05  9.3904688263531821e-05 
 9.5133418653924352e-05  9.6378226818496132e-05  9.7639323132789750e-05  9.8916920725083835e-05 
 1.0021123551241239e-04  1.0152248623705489e-04  1.0285089450350479e-04  1.0419668481592088e-04 
 1.0556008461606902e-04  1.0694132432176051e-04  1.0834063736579306e-04  1.0975826023540174e-04 
 1.1119443251222537e-04  1.1264939691279709e-04  1.1412339932956352e-04  1.1561668887244139e-04 
 1.1712951791091759e-04  1.1866214211670032e-04  1.2021482050692817e-04  1.2178781548794458e-04 
 1.2338139289964524e-04  1.2499582206040557e-04  1.2663137581259639e-04  1.2828833056869435e-04 
 1.2996696635799706e-04  1.3166756687394820e-04  1.3339041952208260e-04  1.3513581546859834e-04 
 1.3690404968956459e-04  1.3869542102077338e-04  1.4051023220824308e-04  1.4234878995938389e-04 
 1.4421140499483174e-04  1.4609839210096083e-04  1.4801007018308326e-04  1.4994676231934494e-04 
 1.5190879581532639e-04  1.5389650225935825e-04  1.5591021757856049e-04  1.5795028209561495e-04 
 1.6001704058628063e-04  1.6211084233766130e-04  1.6423204120723651e-04  1.6638099568266388e-04 
 1.6855806894236453e-04  1.7076362891690092e-04  1.7299804835115820e-04  1.7526170486733910e-04 
 1.7755498102878223e-04  1.7987826440461727e-04  1.8223194763526435e-04  1.8461642849879146e-04 
 1.8703210997813983e-04  1.8947940032922902e-04  1.9195871314995312e-04  1.9447046745007986e-04 
 1.9701508772206424e-04  1.9959300401278858e-04  2.0220465199624195e-04  2.0485047304714913e-04 
 2.0753091431556522e-04  2.1024642880244427e-04  2.1299747543619780e-04  2.1578451915025486e-04 
 2.1860803096163608e-04  2.2146848805055814e-04  2.2436637384107717e-04  2.2730217808278897e-04 
 2.3027639693359796e-04  2.3328953304356886e-04  2.3634209563987572e-04  2.3943460061286281e-04 
 2.4256757060323099e-04  2.4574153509036536e-04  2.4895703048181868e-04  2.5221460020396520e-04 
 2.5551479479384134e-04  2.5885817199218785e-04  2.6224529683770826e-04  2.6567674176256338e-04 
 2.6915308668911281e-04  2.7267491912792328e-04  2.7624283427705879e-04  2.7985743512267184e-04 
 2.8351933254090842e-04  2.8722914540114778e-04  2.9098750067059313e-04  2.9479503352023014e-04 
 2.9865238743217282e-04  3.0256021430841309e-04  3.0651917458099408e-04  3.1052993732362457e-04 
 3.1459318036475400e-04  3.1870959040212728e-04  3.2287986311883821e-04  3.2710470330090177e-04 
 3.3138482495636380e-04  3.3572095143597137e-04  3.4011381555541992e-04  3.4456415971920146e-04 
 3.4907273604607134e-04  3.5364030649615979e-04  3.5826764299974427e-04  3.6295552758770734e-04 
 3.6770475252370199e-04  3.7251612043804602e-04  3.7739044446336858e-04  3.8232854837203114e-04 
 3.8733126671534749e-04  3.9239944496462464e-04  3.9753393965404944e-04  4.0273561852544504e-04 
 4.0800536067492110e-04  4.1334405670144389e-04  4.1875260885734761e-04  4.2423193120082002e-04 
 4.2978294975037847e-04  4.3540660264136996e-04  4.4110384028451719e-04  4.4687562552654252e-04 
 4.5272293381288901e-04  4.5864675335257433e-04  4.6464808528519998e-04  4.7072794385014609e-04 
 4.7688735655798090e-04  4.8312736436411209e-04  4.8944902184471081e-04  4.9585339737493719e-04 
 5.0234157330949895e-04  5.0891464616557142e-04  5.1557372680811214e-04  5.2231994063759888e-04 
 5.2915442778022530e-04  5.3607834328058522e-04  5.4309285729687781e-04  5.5019915529866739e-04 
 5.5739843826722955e-04  5.6469192289852082e-04  5.7208084180880353e-04  5.7956644374295970e-04 
 5.8714999378553284e-04  5.9483277357452919e-04  6.0261608151801916e-04  6.1050123301357041e-04 
 6.1848956067055312e-04  6.2658241453535395e-04  6.3478116231953786e-04  6.4308718963099448e-04 
 6.5150190020810844e-04  6.6002671615699533e-04  6.6866307819183994e-04  6.7741244587838181e-04 
 6.8627629788058423e-04  6.9525613221053289e-04  7.0435346648160151e-04  7.1356983816493497e-04 
 7.2290680484928362e-04  7.3236594450423981e-04  7.4194885574691948e-04  7.5165715811213003e-04 
 7.6149249232607824e-04  7.7145652058365540e-04  7.8155092682935263e-04  7.9177741704185062e-04 
 8.0213771952233545e-04  8.1263358518658495e-04  8.2326678786087746e-04  8.3403912458177346e-04 
 8.4495241589981724e-04  8.5600850618721650e-04  8.6720926394954448e-04  8.7855658214152244e-04 
 8.9005237848693137e-04  9.0169859580271536e-04  9.1349720232732014e-04  9.2545019205332970e-04 
 9.3755958506445774e-04  9.4982742787694382e-04  9.6225579378542234e-04  9.7484678321331226e-04 
 9.8760252406779542e-04  1.0005251720994351e-03  1.0136169112665064e-03  1.0268799541040879e-03 
 1.0403165420979868e-03  1.0539289460635547e-03  1.0677194665294596e-03  1.0816904341264836e-03 
 1.0958442099814030e-03  1.1101831861160250e-03  1.1247097858514434e-03  1.1394264642175887e-03 
 1.1543357083681320e-03  1.1694400380008203e-03  1.1847420057833115e-03  1.2002441977845804e-03 
 1.2159492339119721e-03  1.2318597683539715e-03  1.2479784900287689e-03  1.2643081230386901e-03 
 1.2808514271305806e-03  1.2976111981622064e-03  1.3145902685747619e-03  1.3317915078715590e-03 
 1.3492178231029783e-03  1.3668721593577712e-03  1.3847575002607835e-03  1.4028768684771970e-03 
 1.4212333262233656e-03  1.4398299757843384e-03  1.4586699600381537e-03  1.4777564629869910e-03 
 1.4970927102952768e-03  1.5166819698348277e-03  1.5365275522371301e-03  1.5566328114528453e-03 
 1.5770011453186323e-03  1.5976359961313938e-03  1.6185408512300308e-03  1.6397192435848081e-03 
 1.6611747523944417e-03  1.6829110036909868e-03  1.7049316709526463e-03  1.7272404757245996e-03 
 1.7498411882479494e-03  1.7727376280969043e-03  1.7959336648242950e-03  1.8194332186155383e-03 
 1.8432402609511532e-03  1.8673588152779588e-03  1.8917929576890411e-03  1.9165468176126229e-03 
 1.9416245785099481e-03  1.9670304785822960e-03  1.9927688114872470e-03  2.0188439270643222e-03 
 2.0452602320701167e-03  2.0720221909230462e-03  2.0991343264578554e-03  2.1266012206899785e-03 
 2.1544275155899149e-03  2.1826179138677319e-03  2.2111771797678347e-03  2.2401101398741331e-03 
 2.2694216839257496e-03  2.2991167656433945e-03  2.3292004035665513e-03  2.3596776819016334e-03 
 2.3905537513812182e-03  2.4218338301345353e-03  2.4535232045693441e-03  2.4856272302653478e-03 
 2.5181513328792994e-03  2.5511010090619513e-03  2.5844818273870044e-03  2.6182994292922000e-03 
 2.6525595300327521e-03  2.6872679196472283e-03  2.7224304639360823e-03  2.7580531054529891e-03 
 2.7941418645091513e-03  2.8307028401907430e-03  2.8677422113896739e-03  2.9052662378478357e-03 
 2.9432812612150061e-03  2.9817937061206159e-03  3.0208100812595179e-03  3.0603369804919726e-03 
 3.1003810839580282e-03  3.1409491592064801e-03  3.1820480623386007e-03  3.2236847391668385e-03 
 3.2658662263886805e-03  3.3085996527758565e-03  3.3518922403791389e-03  3.3957513057488731e-03 
 3.4401842611714952e-03  3.4851986159222274e-03  3.5308019775341600e-03  3.5770020530839458e-03 
 3.6238066504943136e-03  3.6712236798536291e-03  3.7192611547527043e-03  3.7679271936391333e-03 
 3.8172300211893190e-03  3.8671779696984624e-03  3.9177794804887431e-03  3.9690431053359190e-03 
 4.0209775079146047e-03  4.0735914652624428e-03  4.1268938692634550e-03  4.1808937281507773e-03 
 4.2356001680290871e-03  4.2910224344169332e-03  4.3471698938092442e-03  4.4040520352602933e-03 
 4.4616784719873712e-03  4.5200589429954408e-03  4.5792033147230553e-03  4.6391215827098087e-03 
 4.6998238732855937e-03  4.7613204452819999e-03  4.8236216917660621e-03  4.8867381417967192e-03 
 4.9506804622042487e-03  5.0154594593929888e-03  5.0810860811676467e-03  5.1475714185834969e-03 
 5.2149267078208106e-03  5.2831633320837724e-03  5.3522928235242946e-03  5.4223268651909682e-03 
 5.4932772930035212e-03  5.5651560977531232e-03  5.6379754271288557e-03  5.7117475877706990e-03 
 5.7864850473493884e-03  5.8622004366734783e-03  5.9389065518239657e-03  6.0166163563168829e-03 
 6.0953429832941485e-03  6.1750997377430939e-03  6.2559000987450538e-03  6.3377577217533492e-03 
 6.4206864409010979e-03  6.5047002713392137e-03  6.5898134116050069e-03  6.6760402460217484e-03 
 6.7633953471296897e-03  6.8518934781488317e-03  6.9415495954739514e-03  7.0323788512022638e-03 
 7.1243965956941709e-03  7.2176183801675045e-03  7.3120599593257170e-03  7.4077372940204705e-03 
 7.5046665539490395e-03  7.6028641203870579e-03  7.7023465889569749e-03  7.8031307724327533e-03 
 7.9052337035812811e-03  8.0086726380409340e-03  8.1134650572378311e-03  8.2196286713402348e-03 
 8.3271814222516134e-03  8.4361414866428418e-03  8.5465272790241440e-03  8.6583574548571660e-03 
 8.7716509137077854e-03  8.8864268024402004e-03  9.0027045184527827e-03  9.1205037129562898e-03 
 9.2398442942949691e-03  9.3607464313111149e-03  9.4832305567536281e-03  9.6073173707312363e-03 
 9.7330278442108453e-03  9.8603832225616726e-03  9.9894050291457794e-03  1.0120115068955561e-02 
 1.0252535432298850e-02  1.0386688498532222e-02  1.0522596939843179e-02  1.0660283725081760e-02 
 1.0799772123642385e-02  1.0941085709396411e-02  1.1084248364676166e-02  1.1229284284311133e-02 
 1.1376217979716932e-02  1.1525074283037803e-02  1.1675878351343299e-02  1.1828655670879904e-02 
 1.1983432061378221e-02  1.2140233680416637e-02  1.2299087027841974e-02  1.2460018950248035e-02 
 1.2623056645512739e-02  1.2788227667394630e-02  1.2955559930189528e-02  1.3125081713448113e-02 
 1.3296821666755250e-02  1.3470808814571779e-02  1.3647072561139797e-02  1.3825642695452001e-02 
 1.4006549396286103e-02  1.4189823237305121e-02  1.4375495192224395e-02  1.4563596640046224e-02 
 1.4754159370362988e-02  1.4947215588729686e-02  1.5142797922106684e-02  1.5340939424373843e-02 
 1.5541673581916639e-02  1.5745034319285468e-02  1.5951056004928958e-02  1.6159773457002341e-02 
 1.6371221949251780e-02  1.6585437216975734e-02  1.6802455463064317e-02  1.7022313364117612e-02 
 1.7245048076644197e-02  1.7470697243340615e-02  1.7699298999453109e-02  1.7930891979222555e-02 
 1.8165515322413745e-02  1.8403208680930108e-02  1.8644012225514966e-02  1.8887966652540507e-02 
 1.9135113190885494e-02  1.9385493608903164e-02  1.9639150221480089e-02  1.9896125897187516e-02 
 2.0156464065526278e-02  2.0420208724266448e-02  2.0687404446883089e-02  2.0958096390089279e-02 
 2.1232330301467713e-02  2.1510152527202071e-02  2.1791610019909771e-02  2.2076750346576975e-02 
 2.2365621696597553e-02  2.2658272889917203e-02  2.2954753385284125e-02  2.3255113288607694e-02 
 2.3559403361426461e-02  2.3867675029486987e-02  2.4179980391434847e-02  2.4496372227619558e-02 
 2.4816904009014467e-02  2.5141629906253540e-02  2.5470604798786278e-02  2.5803884284152510e-02 
 2.6141524687378508e-02  2.6483583070496031e-02  2.6830117242185973e-02  2.7181185767548105e-02 
 2.7536847977998803e-02  2.7897163981298146e-02  2.8262194671708270e-02  2.8632001740284678e-02 
 2.9006647685302124e-02  2.9386195822817016e-02  2.9770710297367949e-02  3.0160256092816341e-02 
 3.0554899043328716e-02  3.0954705844503026e-02  3.1359744064640253e-02  3.1770082156163629e-02 
 3.2185789467187274e-02  3.2606936253236150e-02  3.3033593689119498e-02  3.3465833880959459e-02 
 3.3903729878377240e-02  3.4347355686838603e-02  3.4796786280161071e-02  3.5252097613184603e-02 
 3.5713366634608168e-02  3.6180671299994242e-02  3.6654090584943518e-02  3.7133704498441930e-02 
 3.7619594096382387e-02  3.8111841495263442e-02  3.8610529886067030e-02  3.9115743548318163e-02 
 3.9627567864328209e-02  4.0146089333624776e-02  4.0671395587570304e-02  4.1203575404171980e-02 
 4.1742718723085465e-02  4.2288916660814857e-02  4.2842261526111675e-02  4.3402846835575097e-02 
 4.3970767329456706e-02  4.4546118987671669e-02  4.5128999046019622e-02  4.5719506012617747e-02 
 4.6317739684548838e-02  4.6923801164727323e-02  4.7537792878985838e-02  4.8159818593385487e-02 
 4.8789983431752393e-02  4.9428393893444167e-02  5.0075157871348273e-02  5.0730384670116369e-02 
 5.1394185024636926e-02  5.2066671118749790e-02  5.2747956604205427e-02  5.3438156619872418e-02 
 5.4137387811196203e-02  5.4845768349912248e-02  5.5563417954017667e-02  5.6290457908003612e-02 
 5.7027011083352758e-02  5.7773201959304792e-02  5.8529156643893750e-02  5.9295002895260594e-02 
 6.0070870143244574e-02  6.0856889511257298e-02  6.1653193838442651e-02  6.2459917702127277e-02 
 6.3277197440564190e-02  6.4105171175974432e-02  6.4943978837889910e-02  6.5793762186801941e-02 
 6.6654664838119063e-02  6.7526832286438382e-02  6.8410411930134557e-02  6.9305553096270262e-02 
 7.0212407065833177e-02  7.1131127099302527e-02  7.2061868462550610e-02  7.3004788453083086e-02 
 7.3960046426622600e-02  7.4927803824040282e-02  7.5908224198639643e-02  7.6901473243797563e-02 
 7.7907718820966559e-02  7.8927130988044200e-02  7.9959882028113036e-02  8.1006146478556876e-02 
 8.2066101160558055e-02  8.3139925208980642e-02  8.4227800102644593e-02  8.5329909694996209e-02 
 8.6446440245179709e-02  8.7577580449515552e-02  8.8723521473390465e-02  8.9884456983564953e-02 
 9.1060583180903529e-02  9.2252098833532512e-02  9.3459205310433280e-02  9.4682106615473466e-02 
 9.5921009421884224e-02  9.7176123107188567e-02  9.8447659788586633e-02  9.9735834358803885e-02 
 1.0104086452240872e-01  1.0236297083260489e-01  1.0370237672850550e-01  1.0505930857289494e-01 
 1.0643399569048453e-01  1.0782667040666900e-01  1.0923756808679014e-01  1.1066692717591389e-01 
 1.1211498923912837e-01  1.1358199900236879e-01  1.1506820439377693e-01  1.1657385658560090e-01 
 1.1809921003664489e-01  1.1964452253527263e-01  1.2121005524297436e-01  1.2279607273850382e-01 
 1.2440284306259260e-01  1.2603063776324977e-01  1.2767973194165402e-01  1.2935040429864655e-01 
 1.3104293718183202e-01  1.3275761663329608e-01  1.3449473243794716e-01  1.3625457817249068e-01 
 1.3803745125504446e-01  1.3984365299540283e-01  1.4167348864595883e-01  1.4352726745329264e-01 
 1.4540530271043503e-01  1.4730791180981398e-01  1.4923541629689585e-01  1.5118814192452662e-01 
 1.5316641870798503e-01  1.5517058098075601e-01  1.5720096745103371e-01  1.5925792125896412e-01 
 1.6134179003463661e-01  1.6345292595683397e-01  1.6559168581255182e-01  1.6775843105729626e-01 
 1.6995352787617066e-01  1.7217734724576195e-01  1.7443026499683653e-01  1.7671266187785650e-01 
 1.7902492361932701e-01  1.8136744099898586e-01  1.8374060990784594e-01  1.8614483141710050e-01 
 1.8858051184590727e-01  1.9104806283005585e-01  1.9354790139153563e-01  1.9608045000901325e-01 
 1.9864613668923287e-01  2.0124539503935002e-01  2.0387866434021223e-01  2.0654638962059899e-01 
 2.0924902173243196e-01  2.1198701742697063e-01  2.1476083943200405e-01  2.1757095653005309e-01 
 2.2041784363759559e-01  2.2330198188532865e-01  2.2622385869948070e-01  2.2918396788418757e-01 
 2.3218280970494734e-01  2.3522089097316434e-01  2.3829872513180431e-01  2.4141683234216560e-01 
 2.4457573957178808e-01  2.4777598068351211e-01  2.5101809652570251e-01  2.5430263502365308e-01 
 2.5763015127218747e-01  2.6100120762947160e-01  2.6441637381205324e-01  2.6787622699114566e-01 
 2.7138135189017087e-01  2.7493234088357943e-01  2.7852979409696288e-01  2.8217431950847655e-01 
 2.8586653305158932e-01  2.8960705871917786e-01  2.9339652866898325e-01  2.9723558333044531e-01 
 3.0112487151293965e-01  3.0506505051542604e-01  3.0905678623753385e-01  3.1310075329210080e-01 
 3.1719763511918425e-01  3.2134812410156388e-01  3.2555292168175631e-01  3.2981273848056042e-01 
 3.3412829441715397e-01  3.3850031883076165e-01  3.4292955060391522e-01  3.4741673828732639e-01 
 3.5196264022639356e-01  3.5656802468936410e-01  3.6123366999717355e-01  3.6596036465498361e-01 
 3.7074890748544209e-01  3.7560010776368324e-01  3.8051478535410099e-01  3.8549377084890563e-01 
 3.9053790570849617e-01  3.9564804240366946e-01  4.0082504455968959e-01  4.0606978710224273e-01 
 4.1138315640530143e-01  4.1676605044092441e-01  4.2221937893101535e-01  4.2774406350106869e-01 
 4.3334103783592587e-01  4.3901124783757095e-01  4.4475565178498982e-01  4.5057522049612186e-01 
 4.5647093749193035e-01  4.6244379916261996e-01  4.6849481493602985e-01  4.7462500744822606e-01 
 4.8083541271633451e-01  4.8712708031362678e-01  4.9350107354690165e-01  4.9995846963618623e-01 
 5.0650035989678888e-01  5.1312784992373384e-01  5.1984205977860998e-01  5.2664412417886297e-01 
 5.3353519268956628e-01  5.4051642991769933e-01  5.4758901570897001e-01  5.5475414534721024e-01 
 5.6201302975638279e-01  5.6936689570522936e-01  5.7681698601459863e-01  5.8436455976748447e-01 
 5.9201089252181627e-01  5.9975727652602639e-01  6.0760502093744984e-01  6.1555545204357032e-01 
 6.2360991348616768e-01  6.3176976648839622e-01  6.4003639008483448e-01  6.4841118135454556e-01 
 6.5689555565718682e-01  6.6549094687220922e-01  6.7419880764118578e-01  6.8302060961331212e-01 
 6.9195784369411817e-01  7.0101202029743526e-01  7.1018466960065896e-01  7.1947734180335343e-01 
 7.2889160738923831e-01  7.3842905739160458e-01  7.4809130366220378e-01  7.5787997914365035e-01 
 7.6779673814539995e-01  7.7784325662332654e-01  7.8802123246296474e-01  7.9833238576645571e-01 
 8.0877845914324975e-01  8.1936121800461004e-01  8.3008245086197197e-01  8.4094396962920603e-01 
 8.5194760992883545e-01  8.6309523140226063e-01  8.7438871802404283e-01  8.8582997842030109e-01 
 8.9742094619127311e-01  9.0916358023810029e-01  9.2105986509388504e-01  9.3311181125908205e-01 
 9.4532145554128011e-01  9.5769086139941928e-01  9.7022211929253199e-01  9.8291734703302769e-01 
 9.9577869014461007e-01  1.0088083222248767e+00  1.0220084453126608e+00  1.0353812902601818e+00 
 1.0489291171100641e+00  1.0626542154772909e+00  1.0765589049361532e+00  1.0906455354122639e+00 
 1.1049164875797015e+00  1.1193741732633480e+00  1.1340210358464948e+00  1.1488595506837793e+00 
 1.1638922255195265e+00  1.1791216009115626e+00  1.1945502506605781e+00  1.2101807822450985e+00 
 1.2260158372621657e+00  1.2420580918737663e+00  1.2583102572591121e+00  1.2747750800728348e+00 
 1.2914553429091777e+00  1.3083538647722610e+00  1.3254735015524997e+00  1.3428171465092558e+00 
 1.3603877307598067e+00  1.3781882237747103e+00  1.3962216338796534e+00  1.4144910087638645e+00 
 1.4329994359951821e+00  1.4517500435418602e+00  1.4707460003012025e+00  1.4899905166351135e+00 
 1.5094868449126599e+00  1.5292382800597186e+00  1.5492481601158428e+00  1.5695198667983867e+00 
 1.5900568260740289e+00  1.6108625087377664e+00  1.6319404309994896e+00  1.6532941550782272e+00 
 1.6749272898041734e+00  1.6968434912285857e+00  1.7190464632416671e+00  1.7415399581985331e+00 
 1.7643277775533683e+00  1.7874137725018808e+00  1.8108018446321639e+00  1.8344959465840733e+00 
 1.8585000827172333e+00  1.8828183097877824e+00  1.9074547376339790e+00  1.9324135298707588e+00 
 1.9576989045934181e+00  1.9833151350904663e+00  2.0092665505658269e+00  2.0355575368704821e+00 
 2.0621925372436918e+00  2.0891760530639139e+00  2.1165126446095446e+00  2.1442069318296189e+00 
 2.1722635951245928e+00  2.2006873761373398e+00  2.2294830785545030e+00  2.2586555689183276e+00 
 2.2882097774491177e+00  2.3181506988784579e+00  2.3484833932933311e+00  2.3792129869912890e+00 
 2.4103446733468092e+00  2.4418837136889744e+00  2.4738354381906724e+00  2.5062052467693925e+00 
 2.5389986099998274e+00  2.5722210700384149e+00  2.6058782415599739e+00  2.6399758127065986e+00 
 2.6745195460489684e+00  2.7095152795602360e+00  2.7449689276026579e+00  2.7808864819271357e+00 
 2.8172740126858384e+00  2.8541376694580696e+00  2.8914836822895631e+00  2.9293183627453740e+00 
 2.9676481049765506e+00  3.0064793868007573e+00  3.0458187707970503e+00  3.0856729054149463e+00 
 3.1260485260980579e+00  3.1669524564223779e+00  3.2083916092494862e+00  3.2503729878948397e+00 
 3.2929036873113495e+00  3.3359908952884454e+00  3.3796418936668249e+00  3.4238640595691097e+00 
 3.4686648666465887e+00  3.5140518863422892e+00  3.5600327891705645e+00  3.6066153460134327e+00 
 3.6538074294338707e+00  3.7016170150062973e+00  3.7500521826644668e+00  3.7991211180669944e+00 
 3.8488321139807571e+00  3.8991935716823685e+00  3.9502140023780523e+00  4.0019020286420295e+00 
 4.0542663858737615e+00  4.1073159237742525e+00  4.1610596078416693e+00  4.2155065208865370e+00 
 4.2706658645667472e+00  4.3265469609426681e+00  4.3831592540525879e+00  4.4405123115087850e+00 
 4.4986158261144773e+00  4.5574796175019223e+00  4.6171136337919689e+00  4.6775279532753027e+00 
 4.7387327861157091e+00  4.8007384760756118e+00  4.8635555022642016e+00  4.9271944809083985e+00 
 4.9916661671470681e+00  5.0569814568486340e+00  5.1231513884525119e+00  5.1901871448346339e+00 
 5.2581000551973816e+00  5.3269015969842446e+00  5.3966033978195380e+00  5.4672172374735011e+00 
 5.5387550498531040e+00  5.6112289250189047e+00  5.6846511112283009e+00  5.7590340170055141e+00 
 5.8343902132386596e+00  5.9107324353042561e+00  5.9880735852195333e+00  6.0664267338229072e+00 
 6.1458051229829902e+00  6.2262221678364584e+00  6.3076914590553015e+00  6.3902267651436402e+00 
 6.4738420347646457e+00  6.5585513990978983e+00  6.6443691742275837e+00  6.7313098635619557e+00 
 6.8193881602844382e+00  6.9086189498368125e+00  6.9990173124348916e+00  7.0905985256171080e+00 
 7.1833780668264664e+00  7.2773716160262518e+00  7.3725950583499946e+00  7.4690644867860883e+00 
 7.5667962048975443e+00  7.6658067295773362e+00  7.7661127938398007e+00  7.8677313496485102e+00 
 7.9706795707812734e+00  8.0749748557324850e+00  8.1806348306535384e+00  8.2876773523316736e+00 
 8.3961205112078261e+00  8.5059826344339537e+00  8.6172822889703617e+00  8.7300382847235696e+00 
 8.8442696777252330e+00  8.9599957733526487e+00  9.0772361295914177e+00  9.1960105603407882e+00 
 9.3163391387622507e+00  9.4382422006719526e+00  9.5617403479774978e+00  9.6868544521597180e+00 
 9.8136056578000215e+00  9.9420153861538072e+00  1.0072105338770809e+01  1.0203897501162649e+01 
 1.0337414146518450e+01  1.0472677839469057e+01  1.0609711439900522e+01  1.0748538106817469e+01 
 1.0889181302257029e+01  1.1031664795253974e+01  1.1176012665857749e+01  1.1322249309202043e+01 
 1.1470399439627641e+01  1.1620488094859198e+01  1.1772540640236670e+01  1.1926582773002130e+01 
 1.2082640526642646e+01  1.2240740275290017e+01  1.2400908738178083e+01  1.2563172984158241e+01 
 1.2727560436274286e+01  1.2894098876396889e+01  1.3062816449918806e+01  1.3233741670511526e+01 
 1.3406903424944145e+01  1.3582330977965309e+01  1.3760053977249012e+01  1.3940102458405127e+01 
 1.4122506850055506e+01  1.4307297978976479e+01  1.4494507075308650e+01  1.4684165777834878e+01 
 1.4876306139327296e+01  1.5070960631964304e+01  1.5268162152818464e+01  1.5467944029416149e+01 
 1.5670340025370038e+01  1.5875384346085111e+01  1.6083111644539624e+01  1.6293557027141425e+01 
 1.6506756059661058e+01  1.6722744773242443e+01  1.6941559670492261e+01  1.7163237731648945e+01 
 1.7387816420832440e+01  1.7615333692375742e+01  1.7845827997239255e+01  1.8079338289509096e+01 
 1.8315904032980441e+01  1.8555565207826980e+01  1.8798362317357686e+01  1.9044336394861944e+01 
 1.9293529010544297e+01  1.9545982278549932e+01  1.9801738864081937e+01  2.0060841990612023e+01 
 2.0323335447185269e+01  2.0589263595820597e+01  2.0858671379008051e+01  2.1131604327304220e+01 
 2.1408108567026961e+01  2.1688230828050902e+01  2.1972018451704869e+01  2.2259519398772706e+01 
 2.2550782257598740e+01  2.2845856252299356e+01  2.3144791251081958e+01  2.3447637774672835e+01 
 2.3754447004855280e+01  2.4065270793119424e+01  2.4380161669425277e+01  2.4699172851080455e+01 
 2.5022358251733834e+01  2.5349772490487400e+01  2.5681470901126762e+01  2.6017509541472798e+01 
 2.6357945202855539e+01  2.6702835419712020e+01  2.7052238479309764e+01  2.7406213431597454e+01 
 2.7764820099184526e+01  2.8128119087451314e+01  2.8496171794791529e+01  2.8869040422988707e+01 
 2.9246787987728482e+01  2.9629478329248361e+01  3.0017176123126916e+01  3.0409946891214059e+01 
 3.0807857012704432e+01  3.1210973735355690e+01  3.1619365186853305e+01  3.2033100386324641e+01 
 3.2452249256003149e+01  3.2876882633045412e+01  3.3307072281502819e+01  3.3742890904449858e+01 
 3.4184412156271094e+01  3.4631710655108947e+01  3.5084861995474327e+01  3.5543942761022315e+01 
 3.6009030537494937e+01  3.6480203925833372e+01  3.6957542555461686e+01  3.7441127097744406e+01 
 3.7931039279620144e+01  3.8427361897413682e+01  3.8930178830828723e+01  3.9439575057123825e+01 
 3.9955636665473527e+01  4.0478450871517971e+01  4.1008106032102333e+01  4.1544691660209374e+01 
 4.2088298440087385e+01  4.2639018242575986e+01  4.3196944140632567e+01  4.3762170425061832e+01 
 4.4334792620451118e+01  4.4914907501314367e+01  4.5502613108447157e+01  4.6098008765495898e+01 
 4.6701195095743728e+01  4.7312274039116097e+01  4.7931348869408872e+01  4.8558524211741819e+01 
 4.9193906060240536e+01  4.9837601795949780e+01  5.0489720204980756e+01  5.1150371496896803e+01 
 5.1819667323338663e+01  5.2497720796893979e+01  5.3184646510213625e+01  5.3880560555378104e+01 
 5.4585580543517381e+01  5.5299825624687486e+01  5.6023416508007088e+01  5.6756475482057695e+01 