  <PP_INFO>

############################################################
#    Opium Parameter File                                  #
############################################################
#-----------------------------------------------------------
#Command line   : opium V V.log ae ps nl tc ke rpt upf fhi 
 
#Opium version  : 3.7 
#Compile Host   : pzt.wm.edu 
#Compile OS     : Linux 2.6.9-42.ELsmp x86_64 
#Compile Date   : Mon Apr 27 12:45:31 EDT 2009 
#-----------------------------------------------------------
#Execution Host : oahu 
#Execution Date : Wed Jan 29 17:23:56 2014
 
#-----------------------------------------------------------
############################################################

[Atom]
V
8            
100   2.00  -
200   2.00  -
210   6.00  -
300   2.00  -
310   6.00  -
320   1.00  -
400   0.00  -
410   0.00  -

[Pseudo]
5 0.80 0.80 0.80  2.0  2.0
tm

[KBdesign]
p

[Relativity]
srl

[XC]
pzlda

[Configs]
6

300  2.00 -
310  6.00 -
320  3.00 -
400  2.00 -
410  0.00 -

300  2.00 -
310  6.00 -
320  3.00 -
400  1.00 -
410  0.00 -

300  2.00 -
310  6.00 -
320  3.00 -
400  0.00 -
410  0.00 -

300  2.00 -
310  6.00 -
320  2.00 -
400  2.00 -
410  0.00 -

300  2.00 -
310  6.00 -
320  2.00 -
400  1.00 -
410  0.00 -

300  2.00 -
310  6.00 -
320  1.00 -
400  2.00 -
410  0.00 -

############################################################
  </PP_INFO>



<PP_HEADER>
   0         Version Number
   V        Element
   NC        Norm - Conserving pseudopotential
    F      Nonlinear Core Correction
SLA  PZ   NOGX NOGC    PZ   Exchange-Correlation functional
 13          Z valence
 0          Total energy
 0.000000   0.000000     Suggested cutoff for wfc and rho
 2           Max angular momentum component
 1157           Number of points in mesh
 3  2     Number of Wavefuncitons, Number of Projectors
 Wavefunctions         nl  l   occ
                       S  0  2.000000
                       P  1  6.000000
                      3D  2  1.000000
</PP_HEADER>
<PP_MESH>
  <PP_R>
 3.5163388691695938e-05  3.5623496968648194e-05  3.6089625701375518e-05  3.6561853666743168e-05 
 3.7040260672401251e-05  3.7524927570272404e-05  3.8015936270215865e-05  3.8513369753870597e-05 
 3.9017312088679270e-05  3.9527848442095914e-05  4.0045065095979375e-05  4.0569049461175191e-05 
 4.1099890092288192e-05  4.1637676702648515e-05  4.2182500179473323e-05  4.2734452599226856e-05 
 4.3293627243181779e-05  4.3860118613183827e-05  4.4434022447622823e-05  4.5015435737612762e-05 
 4.5604456743383429e-05  4.6201185010886752e-05  4.6805721388620202e-05  4.7418168044670510e-05 
 4.8038628483980167e-05  4.8667207565840194e-05  4.9304011521611513e-05  4.9949147972678292e-05 
 5.0602725948636254e-05  5.1264855905718928e-05  5.1935649745464988e-05  5.2615220833629903e-05 
 5.3303684019345059e-05  5.4001155654527353e-05  5.4707753613543250e-05  5.5423597313129589e-05 
 5.6148807732575350e-05  5.6883507434167524e-05  5.7627820583904323e-05  5.8381872972479578e-05 
 5.9145792036541703e-05  5.9919706880230755e-05  6.0703748296997213e-05  6.1498048791706650e-05 
 6.2302742603033198e-05  6.3117965726146213e-05  6.3943855935693817e-05  6.4780552809087108e-05 
 6.5628197750089106e-05  6.6486934012712401e-05  6.7356906725429125e-05  6.8238262915698401e-05 
 6.9131151534814088e-05  7.0035723483078001e-05  7.0952131635302330e-05  7.1880530866645967e-05 
 7.2821078078788700e-05  7.3773932226447946e-05  7.4739254344242571e-05  7.5717207573908061e-05 
 7.6707957191867796e-05  7.7711670637165296e-05  7.8728517539761761e-05  7.9758669749203950e-05 
 8.0802301363667111e-05  8.1859588759378006e-05  8.2930710620422987e-05  8.4015847968945998e-05 
 8.5115184195741546e-05  8.6228905091248532e-05  8.7357198876949086e-05  8.8500256237178417e-05 
 8.9658270351351008e-05  9.0831436926608350e-05  9.2019954230893901e-05  9.3224023126460830e-05 
 9.4443847103818328e-05  9.5679632316121897e-05  9.6931587614013719e-05  9.8199924580918784e-05 
 9.9484857568803376e-05  1.0078660373440067e-04  1.0210538307591093e-04  1.0344141847018175e-04 
 1.0479493571037457e-04  1.0616616354412461e-04  1.0755533371219930e-04  1.0896268098766343e-04 
 1.1038844321555620e-04  1.1183286135308757e-04  1.1329617951036060e-04  1.1477864499162680e-04 
 1.1628050833708085e-04  1.1780202336520275e-04  1.1934344721565355e-04  1.2090504039273272e-04 
 1.2248706680940413e-04  1.2408979383189724e-04  1.2571349232489364e-04  1.2735843669730326e-04 
 1.2902490494864013e-04  1.3071317871600504e-04  1.3242354332168300e-04  1.3415628782136328e-04 
 1.3591170505299015e-04  1.3769009168625404e-04  1.3949174827272861e-04  1.4131697929666514e-04 
 1.4316609322645086e-04  1.4503940256674106e-04  1.4693722391127280e-04  1.4885987799637037e-04 
 1.5080768975515025e-04  1.5278098837243564e-04  1.5478010734038962e-04  1.5680538451487560e-04 
 1.5885716217255659e-04  1.6093578706874017e-04  1.6304161049598116e-04  1.6517498834345070e-04 
 1.6733628115708275e-04  1.6952585420050705e-04  1.7174407751677901e-04  1.7399132599091882e-04 
 1.7626797941326731e-04  1.7857442254367147e-04  1.8091104517650993e-04  1.8327824220656900e-04 
 1.8567641369578085e-04  1.8810596494083520e-04  1.9056730654167493e-04  1.9306085447088876e-04 
 1.9558703014401196e-04  1.9814626049074533e-04  2.0073897802710890e-04  2.0336562092853727e-04 
 2.0602663310393239e-04  2.0872246427068537e-04  2.1145357003067976e-04  2.1422041194728950e-04 
 2.1702345762338344e-04  2.1986318078035254e-04  2.2274006133816922e-04  2.2565458549649492e-04 
 2.2860724581684919e-04  2.3159854130585391e-04  2.3462897749956631e-04  2.3769906654891578e-04 
 2.4080932730625876e-04  2.4396028541306595e-04  2.4715247338875733e-04  2.5038643072069789e-04 
 2.5366270395537434e-04  2.5698184679076092e-04  2.6034442016989673e-04  2.6375099237568650e-04 
 2.6720213912694035e-04  2.7069844367567366e-04  2.7424049690567652e-04  2.7782889743237547e-04 
 2.8146425170400008e-04  2.8514717410407482e-04  2.8887828705525105e-04  2.9265822112449784e-04 
 2.9648761512966954e-04  3.0036711624746739e-04  3.0429738012281384e-04  3.0827907097965830e-04 
 3.1231286173323222e-04  3.1639943410377423e-04  3.2053947873174083e-04  3.2473369529452796e-04 
 3.2898279262471750e-04  3.3328748882987180e-04  3.3764851141389449e-04  3.4206659739998232e-04 
 3.4654249345518229e-04  3.5107695601658087e-04  3.5567075141914337e-04  3.6032465602522647e-04 
 3.6503945635578535e-04  3.6981594922329758e-04  3.7465494186642636e-04  3.7955725208644540e-04 
 3.8452370838545024e-04  3.8955515010637577e-04  3.9465242757484820e-04  3.9981640224289209e-04 
 4.0504794683451640e-04  4.1034794549320899e-04  4.1571729393135784e-04  4.2115689958162876e-04 
 4.2666768175032285e-04  4.3225057177274294e-04  4.3790651317059099e-04  4.4363646181142468e-04 
 4.4944138607020214e-04  4.5532226699293940e-04  4.6128009846250958e-04  4.6731588736661117e-04 
 4.7343065376793486e-04  4.7962543107655598e-04  4.8590126622458400e-04  4.9225921984309587e-04 
 4.9870036644138595e-04  5.0522579458855998e-04  5.1183660709750551e-04  5.1853392121127106e-04 
 5.2531886879188217e-04  5.3219259651162939e-04  5.3915626604685647e-04  5.4621105427428950e-04 
 5.5335815346993001e-04  5.6059877151055297e-04  5.6793413207784028e-04  5.7536547486518720e-04 
 5.8289405578721180e-04  5.9052114719200857e-04  5.9824803807617818e-04  6.0607603430267104e-04 
 6.1400645882148065e-04  6.2204065189322563e-04  6.3017997131565771e-04  6.3842579265313191e-04 
 6.4677950946907922e-04  6.5524253356152428e-04  6.6381629520168212e-04  6.7250224337567655e-04 
 6.8130184602942147e-04  6.9021659031670948e-04  6.9924798285054320e-04  7.0839754995775668e-04 
 7.1766683793696769e-04  7.2705741331990654e-04  7.3657086313616332e-04  7.4620879518139994e-04 
 7.5597283828907145e-04  7.6586464260570248e-04  7.7588587986976551e-04  7.8603824369421029e-04 
 7.9632344985268628e-04  8.0674323656951491e-04  8.1729936481345002e-04  8.2799361859529029e-04 
 8.3882780526937809e-04  8.4980375583904803e-04  8.6092332526606938e-04  8.7218839278414178e-04 
 8.8360086221648735e-04  8.9516266229760285e-04  9.0687574699922096e-04  9.1874209586053344e-04 
 9.3076371432274162e-04  9.4294263406797803e-04  9.5528091336266694e-04  9.6778063740537447e-04 
 9.8044391867921528e-04  9.9327289730886427e-04  1.0062697414222441e-03  1.0194366475169440e-03 
 1.0327758408314315e-03  1.0462895757211261e-03  1.0599801360393880e-03  1.0738498355234961e-03 
 1.0879010181856742e-03  1.1021360587092346e-03  1.1165573628499077e-03  1.1311673678424169e-03 
 1.1459685428123797e-03  1.1609633891935937e-03  1.1761544411507858e-03  1.1915442660078942e-03 
 1.2071354646819490e-03  1.2229306721226339e-03  1.2389325577576008e-03  1.2551438259436078e-03 
 1.2715672164235632e-03  1.2882055047895478e-03  1.3050615029518951e-03  1.3221380596144135e-03 
 1.3394380607558234e-03  1.3569644301174939e-03  1.3747201296975603e-03  1.3927081602515122e-03 
 1.4109315617993271e-03  1.4293934141392393e-03  1.4480968373682369e-03  1.4670449924093591e-03 
 1.4862410815459075e-03  1.5056883489626349e-03  1.5253900812940216e-03  1.5453496081797220e-03 
 1.5655703028272865e-03  1.5860555825822377e-03  1.6068089095056107e-03  1.6278337909590521e-03 
 1.6491337801975666e-03  1.6707124769700325e-03  1.6925735281275629e-03  1.7147206282398372e-03 
 1.7371575202194841e-03  1.7598879959546507e-03  1.7829158969498375e-03  1.8062451149751207e-03 
 1.8298795927238743e-03  1.8538233244790876e-03  1.8780803567884170e-03  1.9026547891480561e-03 
 1.9275507746955641e-03  1.9527725209117529e-03  1.9783242903317648e-03  2.0042104012654442e-03 
 2.0304352285271522e-03  2.0570032041751134e-03  2.0839188182604470e-03  2.1111866195859951e-03 
 2.1388112164750814e-03  2.1667972775503302e-03  2.1951495325226713e-03  2.2238727729906788e-03 
 2.2529718532503531e-03  2.2824516911155168e-03  2.3123172687489354e-03  2.3425736335043108e-03 
 2.3732258987793011e-03  2.4042792448796917e-03  2.4357389198948849e-03  2.4676102405848336e-03 
 2.4998985932785951e-03  2.5326094347846184e-03  2.5657482933129764e-03  2.5993207694096332e-03 
 2.6333325369029548e-03  2.6677893438625993e-03  2.7026970135709538e-03  2.7380614455072821e-03 
 2.7738886163447517e-03  2.8101845809605092e-03  2.8469554734589582e-03  2.8842075082084508e-03 
 2.9219469808915246e-03  2.9601802695688843e-03  2.9989138357573164e-03  3.0381542255216972e-03 
 3.0779080705812920e-03  3.1181820894305343e-03  3.1589830884744680e-03  3.2003179631790364e-03 
 3.2421936992364478e-03  3.2846173737457662e-03  3.3275961564089539e-03  3.3711373107425751e-03 
 3.4152481953053453e-03  3.4599362649417429e-03  3.5052090720418989e-03  3.5510742678179700e-03 
 3.5975396035971994e-03  3.6446129321319278e-03  3.6923022089267194e-03  3.7406154935828561e-03 
 3.7895609511604338e-03  3.8391468535582808e-03  3.8893815809119187e-03  3.9402736230098358e-03 
 3.9918315807282775e-03  4.0440641674848029e-03  4.0969802107108984e-03  4.1505886533438133e-03 
 4.2048985553379461e-03  4.2599190951959952e-03  4.3156595715201527e-03  4.3721294045835843e-03 
 4.4293381379224813e-03  4.4872954399489450e-03  4.5460111055849522e-03  4.6054950579177498e-03 
 4.6657573498768605e-03  4.7268081659330528e-03  4.7886578238195499e-03  4.8513167762757412e-03 
 4.9147956128137256e-03  4.9791050615079638e-03  5.0442559908083539e-03  5.1102594113770035e-03 
 5.1771264779490881e-03  5.2448684912180070e-03  5.3134968997452367e-03  5.3830233018951597e-03 
 5.4534594477952184e-03  5.5248172413217165e-03  5.5971087421115987e-03  5.6703461676005599e-03 
 5.7445418950878161e-03  5.8197084638279065e-03  5.8958585771498526e-03  5.9730051046040511e-03 
 6.0511610841372573e-03  6.1303397242960314e-03  6.2105544064590124e-03  6.2918186870984071e-03 
 6.3741463000710633e-03  6.4575511589395115e-03  6.5420473593234153e-03  6.6276491812817520e-03 
 6.7143710917261703e-03  6.8022277468659451e-03  6.8912339946848979e-03  6.9814048774507571e-03 
 7.0727556342573246e-03  7.1653017035999298e-03  7.2590587259845473e-03  7.3540425465711207e-03 
 7.4502692178513973e-03  7.5477550023618509e-03  7.6465163754320916e-03  7.7465700279692271e-03 
 7.8479328692786770e-03  7.9506220299218732e-03  8.0546548646113856e-03  8.1600489551438664e-03 
 8.2668221133714720e-03  8.3749923842120731e-03  8.4845780486989004e-03  8.5955976270700729e-03 
 8.7080698818985738e-03  8.8220138212631635e-03  8.9374487019607957e-03  9.0543940327610581e-03 
 9.1728695777031841e-03  9.2928953594362575e-03  9.4144916626030667e-03  9.5376790372682548e-03 
 9.6624783023913415e-03  9.7889105493451645e-03  9.9169971454803833e-03  1.0046759737736598e-02 
 1.0178220256300762e-02  1.0311400918313375e-02  1.0446324231623321e-02  1.0583012998591670e-02 
 1.0721490319945379e-02  1.0861779598681341e-02  1.1003904544021569e-02  1.1147889175420089e-02 
 1.1293757826622310e-02  1.1441535149777481e-02  1.1591246119604912e-02  1.1742916037614846e-02 
 1.1896570536384410e-02  1.2052235583889612e-02  1.2209937487893978e-02  1.2369702900394628e-02 
 1.2531558822126537e-02  1.2695532607125710e-02  1.2861651967352091e-02  1.3029944977372920e-02 
 1.3200440079107456e-02  1.3373166086633687e-02  1.3548152191057984e-02  1.3725427965448482e-02 
 1.3905023369832991e-02  1.4086968756262301e-02  1.4271294873939766e-02  1.4458032874418006e-02 
 1.4647214316863522e-02  1.4838871173390377e-02  1.5033035834463488e-02  1.5229741114372699e-02 
 1.5429020256778498e-02  1.5630906940330248e-02  1.5835435284357990e-02  1.6042639854638652e-02 
 1.6252555669237799e-02  1.6465218204427690e-02  1.6680663400682940e-02  1.6898927668754497e-02 
 1.7120047895823158e-02  1.7344061451733582e-02  1.7571006195309897e-02  1.7800920480753907e-02 
 1.8033843164127081e-02  1.8269813609917297e-02  1.8508871697691501e-02  1.8751057828835519e-02 
 1.8996412933381942e-02  1.9244978476927400e-02  1.9496796467640378e-02  1.9751909463360650e-02 
 2.0010360578791676e-02  2.0272193492787118e-02  2.0537452455732640e-02  2.0806182297024290e-02 
 2.1078428432644850e-02  2.1354236872839241e-02  2.1633654229890286e-02  2.1916727725996375e-02 
 2.2203505201252086e-02  2.2494035121733303e-02  2.2788366587688066e-02  2.3086549341834690e-02 
 2.3388633777768283e-02  2.3694670948477534e-02  2.4004712574972682e-02  2.4318811055026538e-02 
 2.4637019472029821e-02  2.4959391603962367e-02  2.5285981932481744e-02  2.5616845652130796e-02 
 2.5952038679665654e-02  2.6291617663505712e-02  2.6635639993307498e-02  2.6984163809663553e-02 
 2.7337248013928360e-02  2.7694952278172816e-02  2.8057337055268944e-02  2.8424463589106597e-02 
 2.8796393924943781e-02  2.9173190919892501e-02  2.9554918253541684e-02  2.9941640438719278e-02 
 3.0333422832395016e-02  3.0730331646725909e-02  3.1132433960246255e-02  3.1539797729204094e-02 
 3.1952491799045933e-02  3.2370585916051839e-02  3.2794150739122709e-02  3.3223257851721713e-02 
 3.3657979773972217e-02  3.4098389974913788e-02  3.4544562884918584e-02  3.4996573908270323e-02 
 3.5454499435907796e-02  3.5918416858335078e-02  3.6388404578700718e-02  3.6864542026048122e-02 
 3.7346909668739069e-02  3.7835589028053285e-02  3.8330662691965611e-02  3.8832214329103561e-02 
 3.9340328702887561e-02  3.9855091685856124e-02  4.0376590274178580e-02  4.0904912602357568e-02 
 4.1440147958124042e-02  4.1982386797526951e-02  4.2531720760220784e-02  4.3088242684952711e-02 
 4.3652046625252579e-02  4.4223227865328216e-02  4.4801882936168658e-02  4.5388109631858096e-02 
 4.5982007026103444e-02  4.6583675488977863e-02  4.7193216703883524e-02  4.7810733684736553e-02 
 4.8436330793376489e-02  4.9070113757203652e-02  4.9712189687047409e-02  5.0362667095268099e-02 
 5.1021655914095888e-02  5.1689267514209665e-02  5.2365614723558822e-02  5.3050811846431463e-02 
 5.3744974682772208e-02  5.4448220547752578e-02  5.5160668291597548e-02  5.5882438319671525e-02 
 5.6613652612827130e-02  5.7354434748020287e-02  5.8104909919194946e-02  5.8865204958441331e-02 
 5.9635448357430502e-02  6.0415770289130241e-02  6.1206302629804199e-02  6.2007178981299510e-02 
 6.2818534693625763e-02  6.3640506887829421e-02  6.4473234479167682e-02  6.5316858200585456e-02 
 6.6171520626499641e-02  6.7037366196894238e-02  6.7914541241731546e-02  6.8803194005681897e-02 
 6.9703474673177446e-02  7.0615535393793796e-02  7.1539530307963478e-02  7.2475615573026217e-02 
 7.3423949389619769e-02  7.4384692028416355e-02  7.5358005857208421e-02  7.6344055368349706e-02 
 7.7343007206554487e-02  7.8355030197061012e-02  7.9380295374163384e-02  8.0418976010116786e-02 
 8.1471247644420833e-02  8.2537288113486221e-02  8.3617277580689611e-02  8.4711398566821264e-02 
 8.5819835980932041e-02  8.6942777151583120e-02  8.8080411858505028e-02  8.9232932364670892e-02 
 9.0400533448789414e-02  9.1583412438222836e-02  9.2781769242335665e-02  9.3995806386280120e-02 
 9.5225729045222890e-02  9.6471745079020718e-02  9.7734065067349038e-02  9.9012902345290255e-02 
 1.0030847303938811e-01  1.0162099610417347e-01  1.0295069335916826e-01  1.0429778952637334e-01 
 1.0566251226824723e-01  1.0704509222618143e-01  1.0844576305947953e-01  1.0986476148484614e-01 
 1.1130232731639259e-01  1.1275870350616564e-01  1.1423413618520788e-01  1.1572887470515368e-01 
 1.1724317168037057e-01  1.1877728303065153e-01  1.2033146802446613e-01  1.2190598932277737e-01 
 1.2350111302343222e-01  1.2511710870613260e-01  1.2675424947799516e-01  1.2841281201970689e-01 
 1.3009307663228481e-01  1.3179532728444779e-01  1.3351985166060737e-01  1.3526694120948779e-01 
 1.3703689119338103e-01  1.3883000073804699e-01  1.4064657288326682e-01  1.4248691463405608e-01 
 1.4435133701255112e-01  1.4624015511057145e-01  1.4815368814287119e-01  1.5009225950108715e-01 
 1.5205619680839291e-01  1.5404583197486776e-01  1.5606150125359036e-01  1.5810354529746623e-01 
 1.6017230921679920e-01  1.6226814263761530e-01  1.6439139976075107e-01  1.6654243942171387e-01 
 1.6872162515132602e-01  1.7092932523716250e-01  1.7316591278579246e-01  1.7543176578583483e-01 
 1.7772726717183987e-01  1.8005280488900471e-01  1.8240877195873892e-01  1.8479556654508472e-01 
 1.8721359202200794e-01  1.8966325704156933e-01  1.9214497560298763e-01  1.9465916712260647e-01 
 1.9720625650477661e-01  1.9978667421366611e-01  2.0240085634600932e-01  2.0504924470480865e-01 
 2.0773228687400014e-01  2.1045043629409624e-01  2.1320415233881840e-01  2.1599390039273239e-01 
 2.1882015192989909e-01  2.2168338459355505e-01  2.2458408227683563e-01  2.2752273520455252e-01 
 2.3049984001604501e-01  2.3351589984911217e-01  2.3657142442504428e-01  2.3966693013476711e-01 
 2.4280294012611314e-01  2.4597998439223503e-01  2.4919859986117529e-01  2.5245933048660890e-01 
 2.5576272733977240e-01  2.5910934870259628e-01  2.6249976016205634e-01  2.6593453470575851e-01 
 2.6941425281877585e-01  2.7293950258175159e-01  2.7651087977028610e-01  2.8012898795562441e-01 
 2.8379443860666176e-01  2.8750785119328143e-01  2.9126985329104921e-01  2.9508108068727362e-01 
 2.9894217748845575e-01  3.0285379622914471e-01  3.0681659798221761e-01  3.1083125247060289e-01 
 3.1489843818046404e-01  3.1901884247586648e-01  3.2319316171494294e-01  3.2742210136758026e-01 
 3.3170637613464504e-01  3.3604671006876979e-01  3.4044383669671985e-01  3.4489849914336096e-01 
 3.4941145025724907e-01  3.5398345273786364e-01  3.5861527926450643e-01  3.6330771262688344e-01 
 3.6806154585740186e-01  3.7287758236519225e-01  3.7775663607188703e-01  3.8269953154917535e-01 
 3.8770710415815729e-01  3.9278020019052245e-01  3.9791967701157477e-01  4.0312640320512921e-01 
 4.0840125872030525e-01  4.1374513502023957e-01  4.1915893523274567e-01  4.2464357430294497e-01 
 4.3019997914789421e-01  4.3582908881323695e-01  4.4153185463190470e-01  4.4730924038489361e-01 
 4.5316222246414778e-01  4.5909179003756739e-01  4.6509894521618628e-01  4.7118470322352712e-01 
 4.7735009256717797e-01  4.8359615521261207e-01  4.8992394675928280e-01  4.9633453661902216e-01 
 5.0282900819677434e-01  5.0940845907369348e-01  5.1607400119263747e-01  5.2282676104608905e-01 
 5.2966787986653574e-01  5.3659851381934065e-01  5.4361983419813731e-01  5.5073302762278142e-01 
 5.5793929623989147e-01  5.6523985792601572e-01  5.7263594649345606e-01  5.8012881189878152e-01 
 5.8771972045408072e-01  5.9540995504096650e-01  6.0320081532738734e-01  6.1109361798727502e-01 
 6.1908969692306426e-01  6.2719040349112698e-01  6.3539710673015348e-01  6.4371119359252393e-01 
 6.5213406917870653e-01  6.6066715697472234e-01  6.6931189909271871e-01  6.7806975651468893e-01 
 6.8694220933938155e-01  6.9593075703244178e-01  7.0503691867982277e-01  7.1426223324451654e-01 
 7.2360825982664334e-01  7.3307657792693737e-01  7.4266878771369416e-01  7.5238651029319781e-01 
 7.6223138798369383e-01  7.7220508459294379e-01  7.8230928569941260e-01  7.9254569893713622e-01 
 8.0291605428431601e-01  8.1342210435568763e-01  8.2406562469871825e-01  8.3484841409367927e-01 
 8.4577229485764205e-01  8.5683911315245564e-01  8.6805073929675192e-01  8.7940906808203401e-01 
 8.9091601909290075e-01  9.0257353703146048e-01  9.1438359204599240e-01  9.2634818006390018e-01 
 9.3846932312903664e-01  9.5074906974342999e-01  9.6318949521348474e-01  9.7579270200071455e-01 
 9.8856082007706347e-01  1.0014960072848760e+00  1.0146004497015770e+00  1.0278763620091247e+00 
 1.0413259878682972e+00  1.0549516002978760e+00  1.0687555020587920e+00  1.0827400260432973e+00 
 1.0969075356692302e+00  1.1112604252794371e+00  1.1258011205464238e+00  1.1405320788822981e+00 
 1.1554557898540820e+00  1.1705747756044460e+00  1.1858915912779684e+00  1.2014088254529534e+00 
 1.2171291005789093e+00  1.2330550734197483e+00  1.2491894355027853e+00  1.2655349135736140e+00 
 1.2820942700569320e+00  1.2988703035233984e+00  1.3158658491625970e+00  1.3330837792621921e+00 
 1.3505270036933505e+00  1.3681984704025187e+00  1.3861011659096292e+00  1.4042381158128336e+00 
 1.4226123852998325e+00  1.4412270796659024e+00  1.4600853448386981e+00  1.4791903679099137e+00 
 1.4985453776739222e+00  1.5181536451734408e+00  1.5380184842523454e+00  1.5581432521157215e+00 
 1.5785313498972375e+00  1.5991862232339431e+00  1.6201113628485937e+00  1.6413103051395868e+00 
 1.6627866327786263e+00  1.6845439753161979e+00  1.7065860097949759e+00  1.7289164613712489e+00 
 1.7515391039444821e+00  1.7744577607951144e+00  1.7976763052307023e+00  1.8211986612405180e+00 
 1.8450288041587155e+00  1.8691707613361588e+00  1.8936286128210762e+00  1.9184064920485790e+00 
 1.9435085865392312e+00  1.9689391386067470e+00  1.9947024460749532e+00  2.0208028630041306e+00 
 2.0472448004268622e+00  2.0740327270935062e+00  2.1011711702274276e+00  2.1286647162901082e+00 
 2.1565180117562699e+00  2.1847357638991398e+00  2.2133227415859915e+00  2.2422837760840930e+00 
 2.2716237618772053e+00  2.3013476574927587e+00  2.3314604863398629e+00  2.3619673375582559e+00 
 2.3928733668784070e+00  2.4241837974928306e+00  2.4559039209388231e+00  2.4880390979927420e+00 
 2.5205947595759963e+00  2.5535764076728777e+00  2.5869896162604147e+00  2.6208400322503862e+00 
 2.6551333764436600e+00  2.6898754444970270e+00  2.7250721079026783e+00  2.7607293149804999e+00 
 2.7968530918833570e+00  2.8334495436155218e+00  2.8705248550644424e+00  2.9080852920459956e+00 
 2.9461372023634347e+00  2.9846870168801587e+00  3.0237412506065802e+00  3.0633065038011504e+00 
 3.1033894630858292e+00  3.1439969025761361e+00  3.1851356850259949e+00  3.2268127629875551e+00 
 3.2690351799861856e+00  3.3118100717108550e+00  3.3551446672200709e+00  3.3990462901636169e+00 
 3.4435223600202582e+00  3.4885803933516604e+00  3.5342280050726975e+00  3.5804729097383960e+00 
 3.6273229228477120e+00  3.6747859621643699e+00  3.7228700490549853e+00  3.7715833098446758e+00 
 3.8209339771904633e+00  3.8709303914725881e+00  3.9215810022040611e+00  3.9728943694586478e+00 
 4.0248791653175457e+00  4.0775441753349853e+00  4.1308983000230057e+00  4.1849505563556679e+00 
 4.2397100792929407e+00  4.2951861233245339e+00  4.3513880640339293e+00  4.4083253996828677e+00 
 4.4660077528165960e+00  4.5244448718900800e+00  4.5836466329155305e+00  4.6436230411314652e+00 
 4.7043842326936316e+00  4.7659404763880051e+00  4.8283021753662876e+00  4.8914798689040317e+00 
 4.9554842341818182e+00  5.0203260880897123e+00  5.0860163890553549e+00  5.1525662388959592e+00 
 5.2199868846945430e+00  5.2882897207007149e+00  5.3574862902563254e+00  5.4275882877463246e+00 
 5.4986075605751381e+00  5.5705561111689068e+00  5.6434460990039259e+00  5.7172898426616232e+00 
 5.7920998219104352e+00  5.8678886798149072e+00  5.9446692248724222e+00  6.0224544331778160e+00 
 6.1012574506164414e+00  6.1810915950858032e+00  6.2619703587463320e+00  6.3439074103015836e+00 
 6.4269165973082911e+00  6.5110119485166242e+00  6.5962076762410957e+00  6.6825181787624652e+00 
 6.7699580427610844e+00  6.8585420457820865e+00  6.9482851587328174e+00  7.0392025484129679e+00 
 7.1313095800777804e+00  7.2246218200348338e+00  7.3191550382747730e+00  7.4149252111364765e+00 
 7.5119485240071144e+00  7.6102413740574599e+00  7.7098203730131329e+00  7.8107023499619643e+00 
 7.9129043541981670e+00  8.0164436581037037e+00  8.1213377600673731e+00  8.2276043874420655e+00 
 8.3352614995407244e+00  8.4443272906715396e+00  8.5548201932127910e+00  8.6667588807279987e+00 
 8.7801622711217711e+00  8.8950495298369994e+00  9.0114400730938495e+00  9.1293535711711495e+00 
 9.2488099517307223e+00  9.3698294031852019e+00  9.4924323781099353e+00  9.6166395966994607e+00 
 9.7424720502693614e+00  9.8699510048037826e+00  9.9990980045494542e+00  1.0129934875656717e+01 
 1.0262483729868187e+01  1.0396766968255712e+01  1.0532807285006180e+01  1.0670627671256918e+01 
 1.0810251418981220e+01  1.0951702124924779e+01  1.1095003694593558e+01  1.1240180346293908e+01 
 1.1387256615225496e+01  1.1536257357627832e+01  1.1687207754981012e+01  1.1840133318261470e+01 
 1.1995059892253398e+01  1.2152013659916497e+01  1.2311021146811095e+01  1.2472109225580922e+01 
 1.2635305120494696e+01  1.2800636412047089e+01  1.2968131041619865e+01  1.3137817316204087e+01 
 1.3309723913184017e+01  1.3483879885183709e+01  1.3660314664976935e+01  1.3839058070461412e+01 
 1.4020140309698094e+01  1.4203591986016407e+01  1.4389444103186280e+01  1.4577728070657860e+01 
 1.4768475708869781e+01  1.4961719254626905e+01  1.5157491366548426e+01  1.5355825130587164e+01 
 1.5556754065621323e+01  1.5760312129119148e+01  1.5966533722877859e+01  1.6175453698837636e+01 
 1.6387107364971659e+01  1.6601530491253264e+01  1.6818759315701136e+01  1.7038830550503640e+01 
 1.7261781388223241e+01  1.7487649508082164e+01  1.7716473082330250e+01  1.7948290782696166e+01 
 1.8183141786923034e+01  1.8421065785389516e+01  1.8662102987817658e+01  1.8906294130068346e+01 
 1.9153680481025866e+01  1.9404303849572251e+01  1.9658206591653336e+01  1.9915431617436841e+01 
 2.0176022398564356e+01  2.0440022975498103e+01  2.0707477964963946e+01  2.0978432567491662e+01 
 2.1252932575053993e+01  2.1531024378805540e+01  2.1812754976923028e+01  2.2098171982548077e+01 
 2.2387323631833965e+01  2.2680258792097636e+01  2.2977026970078377e+01  2.3277678320304609e+01 
 2.3582263653570095e+01  2.3890834445521151e+01  2.4203442845355948e+01  2.4520141684638155e+01 
 2.4840984486225366e+01  2.5166025473314701e+01  2.5495319578606601e+01  2.5828922453588611e+01 
 2.6166890477940608e+01  2.6509280769063114e+01  2.6856151191730241e+01  2.7207560367869014e+01 
 2.7563567686466573e+01  2.7924233313607107e+01  2.8289618202640021e+01  2.8659784104481204e+01 
 2.9034793578049108e+01  2.9414710000837314e+01  2.9799597579625516e+01  3.0189521361330652e+01 
 3.0584547243999790e+01  3.0984741987947345e+01  3.1390173227037543e+01  3.1800909480114758e+01 
 3.2217020162583353e+01  3.2638575598139049e+01  3.3065647030653800e+01  3.3498306636216171e+01 
 3.3936627535329265e+01  3.4380683805268298e+01  3.4830550492599762e+01  3.5286303625864569e+01 
 3.5748020228426959e+01  3.6215778331491691e+01  3.6689656987291514e+01  3.7169736282447104e+01 
 3.7656097351502005e+01  3.8148822390634543e+01  3.8647994671548908e+01  3.9153698555548729e+01 
 3.9666019507794040e+01  4.0185044111745121e+01  4.0710860083795374e+01  4.1243556288095576e+01 
 4.1783222751572133e+01  4.2329950679141803e+01  4.2883832469125643e+01  4.3444961728864421e+01 
 4.4013433290538600e+01  4.4589343227195101e+01  4.5172788868983943e+01  4.5763868819607268e+01 
 4.6362682972983521e+01  4.6969332530129897e+01  4.7583920016265409e+01  4.8206549298138093e+01 
 4.8837325601578314e+01  4.9476355529282777e+01  5.0123747078830192e+01  5.0779609660933303e+01 
 5.1444054117929504e+01  5.2117192742513453e+01  5.2799139296714834e+01  5.3490009031124430e+01 
 5.4189918704371692e+01  5.4898986602857242e+01  5.5617332560743542e+01  5.6345077980207272e+01 
 5.7082345851956369e+01  5.7829260776015971e+01  5.8585948982785951e+01  5.9352538354374239e+01 
 6.0129158446209203e+01  6.0915940508934909e+01  6.1713017510592351e+01  6.2520524159092020e+01 
 6.3338596924979477e+01  6.4167374064499242e+01  6.5006995642960462e+01  6.5857603558408286e+01 
 6.6719341565604935e+01  6.7592355300324684e+01  6.8476792303966519e+01  6.9372802048489106e+01 
 7.0280535961671873e+01  7.1200147452706645e+01  7.2131791938124167e+01  7.3075626868059871e+01 
 7.4031811752863319e+01  7.5000508190055896e+01  7.5981879891641043e+01  7.6976092711772239e+01 
 7.7983314674782150e+01  7.9003716003579925e+01  8.0037469148418808e+01  8.1084748816040687e+01 
 8.2145731999201985e+01  8.3220598006585973e+01  8.4309528493106143e+01  8.5412707490606493e+01 
 8.6530321438963242e+01  8.7662559217593710e+01  8.8809612177377332e+01  8.9971674172994412e+01 
 9.1148941595687972e+01  9.2341613406454556e+01  9.3549891169668768e+01  9.4773979087148476e+01 
 9.6014084032665124e+01  9.7270415586906282e+01  9.8543186072894429e+01  9.9832610591871244e+01 
 1.0113890705964937e+02  1.0246229624344092e+02  1.0380300179916780e+02  1.0516125030925994e+02 
 1.0653727132094828e+02  1.0793129738505888e+02  1.0934356409531448e+02  1.1077431012815043e+02 