  <PP_INFO>

############################################################
#    Opium Parameter File                                  #
############################################################
#-----------------------------------------------------------
#Command line   : ../../opium-modified/opium Pt Pt.log ae ps nl tc2 ke upf qmcpack rpt 
 
#Opium version  : 4.1 
#Compile Host   : login26 
#Compile OS     : Linux 5.14.21-150400.24.81_12.0.86-cray_shasta_c x86_64 
#Compile Date   : Mon Nov 20 09:17:44 PST 2023 
#-----------------------------------------------------------
#Execution Host : login37 
#Execution Date : Mon Dec  4 11:24:56 2023
 
#-----------------------------------------------------------
############################################################
[Atom]
Pt
15            
100   2.00 -
200   2.00 -
210   6.00 -
300   2.00 -
310   6.00 -
320  10.00 -
400   2.00 -
410   6.00 -
420  10.00 -
430  14.00 -
500   2.00 -
510   6.00 -
520   8.00 -
600   0.00 -
610   0.00 -

[Pseudo]
5 1.176092 1.288137 1.877981 3.242022 3.2
g

[Gaussinfo]
18 5 3 
3 3 3 3 4  4 4 2
2  14.60449000  428.40099106
2  7.21805500  67.39123505
2  5.42957100  21.84244989
2  11.17899000  255.94777316
2  5.36541300  52.70938516
2  8.01111800  13.37936208
2  7.61560500  121.97705753
2  3.90491200  5.83999593
2  5.44687500  44.74689184
2  3.38625700  13.30821778
2  3.32648900  19.51739466
2  5.43061600  25.35033833
1  13.60000000  18.00000000
3  13.60000000  244.80000000
2  13.60000000  -161.70711729
2  5.43018600  -19.53004444
2       1.29059784799779e+01  -1.76006815880261e+02  
2       9.56953351812461e+00  1.76041345143904e+02
2       5.24193657566457e+00  -2.72608531498505e+01  
2       7.37080663514213e+00  2.74171433009331e+01 
2       8.15692327432205e+00  -4.25981412855484e+01
2       7.16069062202674e+00  4.42007693743279e+01 
2       3.61119073509307e+00  -6.87685856031911e+00  
2       4.03428618631540e+00  7.58009068027233e+00
2       3.37986900000000e+00  -7.14014600000000e+00
2       3.32625500000000e+00  7.13906300000000e+00

[KBdesign]
s

[Relativity]
frl

[XC]
pbe

[Configs]
5
500   2.00 -
510   6.00 -
520   7.00 -
600   1.00 -
610   0.00 -

500   2.00 -
510   6.00 -
520   7.00 -
600   0.00 -
610   1.00 -

500   2.00 -
510   6.00 -
520   7.00 -
600   0.00 -
610   0.00 -

500   2.00 -
510   6.00 -
520   6.00 -
600   0.00 -
610   0.00 -

500   2.00 -
510   6.00 -
520   5.00 -
600   0.00 -
610   0.00 -
############################################################
  </PP_INFO>



<PP_HEADER>
   0         Version Number
   Pt        Element
   NC        Norm - Conserving pseudopotential
    F      Nonlinear Core Correction
SLA  PW   PBE  PBE     PBE  Exchange-Correlation functional
 18          Z valence
 0          Total energy
 0.000000   0.000000     Suggested cutoff for wfc and rho
 2           Max angular momentum component
 1188           Number of points in mesh
 5  4     Number of Wavefuncitons, Number of Projectors
 Wavefunctions         nl  l   occ
                       S  0  2.000000
                       P  1  2.000000
                       P  1  4.000000
                       D  2  3.200000
                       D  2  4.800000
</PP_HEADER>
<PP_MESH>
  <PP_R>
 2.3404631038831515e-05  2.3710877531579894e-05  2.4021131219065293e-05  2.4335444534899332e-05 
 2.4653870598780478e-05  2.4976463225471442e-05  2.5303276933893882e-05  2.5634366956342400e-05 
 2.5969789247818811e-05  2.6309600495488717e-05  2.6653858128261755e-05  2.7002620326497231e-05 
 2.7355946031836725e-05  2.7713894957165407e-05  2.8076527596703620e-05  2.8443905236230507e-05 
 2.8816089963441563e-05  2.9193144678441522e-05  2.9575133104374643e-05  2.9962119798194082e-05 
 3.0354170161572158e-05  3.0751350451953404e-05  3.1153727793752217e-05  3.1561370189697098e-05 
 3.1974346532323110e-05  3.2392726615615134e-05  3.2816581146803009e-05  3.3245981758311336e-05 
 3.3681001019865478e-05  3.4121712450756011e-05  3.4568190532263698e-05  3.5020510720246971e-05 
 3.5478749457894204e-05  3.5942984188642648e-05  3.6413293369266758e-05  3.6889756483137422e-05 
 3.7372454053654932e-05  3.7861467657857571e-05  3.8356879940208335e-05  3.8858774626562079e-05 
 3.9367236538315394e-05  3.9882351606741479e-05  4.0404206887512955e-05  4.0932890575414352e-05 
 4.1468492019247227e-05  4.2011101736930371e-05  4.2560811430797553e-05  4.3117714003095384e-05 
 4.3681903571684065e-05  4.4253475485943524e-05  4.4832526342887698e-05  4.5419154003489526e-05 
 4.6013457609219928e-05  4.6615537598802768e-05  4.7225495725189294e-05  4.7843435072754627e-05 
 4.8469460074719254e-05  4.9103676530798519e-05  4.9746191625083031e-05  5.0397113944152879e-05 
 5.1056553495429313e-05  5.1724621725765998e-05  5.2401431540283937e-05  5.3087097321452677e-05 
 5.3781734948421165e-05  5.4485461816601661e-05  5.5198396857509829e-05  5.5920660558864443e-05 
 5.6652374984950147e-05  5.7393663797246381e-05  5.8144652275326827e-05  5.8905467338031696e-05 
 5.9676237564917407e-05  6.0457093217986811e-05  6.1248166263703767e-05  6.2049590395295872e-05 
 6.2861501055348857e-05  6.3684035458696589e-05  6.4517332615611017e-05  6.5361533355294961e-05 
 6.6216780349682744e-05  6.7083218137551948e-05  6.7960993148950943e-05  6.8850253729945860e-05 
 6.9751150167691396e-05  7.0663834715829765e-05  7.1588461620221872e-05  7.2525187145015319e-05 
 7.3474169599053166e-05  7.4435569362628904e-05  7.5409548914590765e-05  7.6396272859801219e-05 
 7.7395907956955497e-05  7.8408623146764250e-05  7.9434589580504981e-05  8.0473980648946772e-05 
 8.1526972011654086e-05  8.2593741626673444e-05  8.3674469780608795e-05  8.4769339119090408e-05 
 8.5878534677642391e-05  8.7002243912954102e-05  8.8140656734560864e-05  8.9293965536939044e-05 
 9.0462365232021251e-05  9.1646053282136945e-05  9.2845229733383693e-05  9.4060097249436020e-05 
 9.5290861145795627e-05  9.6537729424490360e-05  9.7800912809226933e-05  9.9080624781003931e-05 
 1.0037708161419047e-04  1.0169050241307688e-04  1.0302110914890431e-04  1.0436912669737816e-04 
 1.0573478287667245e-04  1.0711830848593194e-04  1.0851993734427745e-04  1.0993990633032212e-04 
 1.1137845542220421e-04  1.1283582773814415e-04  1.1431226957753205e-04  1.1580803046255288e-04 
 1.1732336318035611e-04  1.1885852382577778e-04  1.2041377184462077e-04  1.2198937007750196e-04 
 1.2358558480427275e-04  1.2520268578902107e-04  1.2684094632566236e-04  1.2850064328412633e-04 
 1.3018205715714925e-04  1.3188547210767765e-04  1.3361117601689239e-04  1.3535946053286154e-04 
 1.3713062111982933e-04  1.3892495710815053e-04  1.4074277174487784e-04  1.4258437224501144e-04 
 1.4445006984341907e-04  1.4634017984743551e-04  1.4825502169014978e-04  1.5019491898439101e-04 
 1.5216019957741902e-04  1.5415119560633164e-04  1.5616824355419646e-04  1.5821168430691748e-04 
 1.6028186321084562e-04  1.6237913013114261e-04  1.6450383951090977e-04  1.6665635043108936e-04 
 1.6883702667115001e-04  1.7104623677056656e-04  1.7328435409110391e-04  1.7555175687991619e-04 
 1.7784882833347135e-04  1.8017595666231225e-04  1.8253353515666532e-04  1.8492196225290735e-04 
 1.8734164160090239e-04  1.8979298213221913e-04  1.9227639812924180e-04  1.9479230929518476e-04 
 1.9734114082502335e-04  1.9992332347735215e-04  2.0253929364718551e-04  2.0518949343970838e-04 
 2.0787437074499336e-04  2.1059437931369537e-04  2.1334997883373639e-04  2.1614163500799388e-04 
 2.1896981963300579e-04  2.2183501067870494e-04  2.2473769236919765e-04  2.2767835526459819e-04 
 2.3065749634393492e-04  2.3367561908914093e-04  2.3673323357014382e-04  2.3983085653106785e-04 
 2.4296901147756629e-04  2.4614822876529416e-04  2.4936904568954009e-04  2.5263200657602990e-04 
 2.5593766287291961e-04  2.5928657324399129e-04  2.6267930366306831e-04  2.6611642750966672e-04 
 2.6959852566589695e-04  2.7312618661463531e-04  2.7670000653897824e-04  2.8032058942299920e-04 
 2.8398854715382262e-04  2.8770449962503531e-04  2.9146907484144910e-04  2.9528290902523574e-04 
 2.9914664672344961e-04  3.0306094091695764e-04  3.0702645313079494e-04  3.1104385354596405e-04 
 3.1511382111269699e-04  3.1923704366519927e-04  3.2341421803789596e-04  3.2764605018319816e-04 
 3.3193325529081070e-04  3.3627655790860071e-04  3.4067669206504789e-04  3.4513440139329759e-04 
 3.4965043925683594e-04  3.5422556887681079e-04  3.5886056346101679e-04  3.6355620633457054e-04 
 3.6831329107229370e-04  3.7313262163282944e-04  3.7801501249451301e-04  3.8296128879302028e-04 
 3.8797228646081849e-04  3.9304885236844011e-04  3.9819184446760652e-04  4.0340213193622288e-04 
 4.0868059532527256e-04  4.1402812670763152e-04  4.1944562982883113e-04  4.2493402025979316e-04 
 4.3049422555156296e-04  4.3612718539206885e-04  4.4183385176493092e-04  4.4761518911034875e-04 
 4.5347217448809358e-04  4.5940579774263451e-04  4.6541706167042406e-04  4.7150698218937362e-04 
 4.7767658851054565e-04  4.8392692331209228e-04  4.9025904291547147e-04  4.9667401746396735e-04 
 5.0317293110354710e-04  5.0975688216608334e-04  5.1642698335497639e-04  5.2318436193320248e-04 
 5.3003015991382482e-04  5.3696553425299583e-04  5.4399165704548536e-04  5.5110971572276820e-04 
 5.5832091325370265e-04  5.6562646834783508e-04  5.7302761566136373e-04  5.8052560600580037e-04 
 5.8812170655935902e-04  5.9581720108111281e-04  6.0361339012795210e-04  6.1151159127438104e-04 
 6.1951313933519207e-04  6.2761938659105197e-04  6.3583170301704096e-04  6.4415147651418036e-04 
 6.5258011314399357e-04  6.6111903736613194e-04  6.6976969227911236e-04  6.7853353986420503e-04 
 6.8741206123250982e-04  6.9640675687527014e-04  7.0551914691745785e-04  7.1475077137467876e-04 
 7.2410319041343765e-04  7.3357798461481211e-04  7.4317675524157296e-04  7.5290112450880219e-04 
 7.6275273585805126e-04  7.7273325423508530e-04  7.8284436637126513e-04  7.9308778106860686e-04 
 8.0346522948857523e-04  8.1397846544465171e-04  8.2462926569873592e-04  8.3541943026142068e-04 
 8.4635078269619860e-04  8.5742517042764941e-04  8.6864446505365673e-04  8.8001056266171613e-04 
 8.9152538414937561e-04  9.0319087554887342e-04  9.1500900835602024e-04  9.2698177986338926e-04 
 9.3911121349786139e-04  9.5139935916259020e-04  9.6384829358344055e-04  9.7646012065995800e-04 
 9.8923697182093677e-04  1.0021810063846330e-03  1.0152944119236962e-03  1.0285794046348733e-03 
 1.0420382297135519e-03  1.0556731617332039e-03  1.0694865050297931e-03  1.0834805940912141e-03 
 1.0976577939518250e-03  1.1120205005921450e-03  1.1265711413437818e-03  1.1413121752996544e-03 
 1.1562460937295856e-03  1.1713754205013346e-03  1.1867027125071349e-03  1.2022305600958166e-03 
 1.2179615875105799e-03  1.2338984533324983e-03  1.2500438509298274e-03  1.2664005089131891e-03 
 1.2829711915967130e-03  1.2997586994652121e-03  1.3167658696474735e-03  1.3339955763957342e-03 
 1.3514507315714446e-03  1.3691342851373737e-03  1.3870492256561633e-03  1.4051985807954001e-03 
 1.4235854178392998e-03  1.4422128442070853e-03  1.4610840079781480e-03  1.4802020984240817e-03 
 1.4995703465476718e-03  1.5191920256289509e-03  1.5390704517783856e-03  1.5592089844973071e-03 
 1.5796110272456769e-03  1.6002800280172783e-03  1.6212194799224357e-03  1.6424329217783597e-03 
 1.6639239387072147e-03  1.6856961627420093e-03  1.7077532734404279e-03  1.7300989985066756e-03 
 1.7527371144214741e-03  1.7756714470802935e-03  1.7989058724399393e-03  1.8224443171735972e-03 
 1.8462907593344514e-03  1.8704492290279858e-03  1.8949238090930742e-03  1.9197186357920010e-03 
 1.9448378995094930e-03  1.9702858454609044e-03  1.9960667744096695e-03  2.0221850433941421e-03 
 2.0486450664639441e-03  2.0754513154259521e-03  2.1026083206000436e-03  2.1301206715847263e-03 
 2.1579930180327996e-03  2.1862300704371526e-03  2.2148366009268491e-03  2.2438174440736272e-03 
 2.2731774977089564e-03  2.3029217237517810e-03  2.3330551490470955e-03  2.3635828662154986e-03 
 2.3945100345138456e-03  2.4258418807071910e-03  2.4575836999521142e-03  2.4897408566916168e-03 
 2.5223187855617237e-03  2.5553229923099539e-03  2.5887590547257998e-03  2.6226326235833917e-03 
 2.6569494235964904e-03  2.6917152543859718e-03  2.7269359914599868e-03  2.7626175872069304e-03 
 2.7987660719014087e-03  2.8353875547233722e-03  2.8724882247905810e-03  2.9100743522045792e-03 
 2.9481522891103584e-03  2.9867284707698876e-03  3.0258094166496770e-03  3.0654017315225992e-03 
 3.1055121065841013e-03  3.1461473205830356e-03  3.1873142409672836e-03  3.2290198250443706e-03 
 3.2712711211572701e-03  3.3140752698755868e-03  3.3574395052023355e-03  3.4013711557964910e-03 
 3.4458776462115682e-03  3.4909664981503776e-03  3.5366453317362124e-03  3.5829218668006688e-03 
 3.6298039241883149e-03  3.6772994270784331e-03  3.7254164023240565e-03  3.7741629818085274e-03 
 3.8235474038197936e-03  3.8735780144427178e-03  3.9242632689695731e-03  3.9756117333290108e-03 
 4.0276320855337213e-03  4.0803331171470414e-03  4.1337237347687465e-03  4.1878129615402901e-03 
 4.2426099386697379e-03  4.2981239269766387e-03  4.3543643084571499e-03  4.4113405878695982e-03 
 4.4690623943408137e-03  4.5275394829934739e-03  4.5867817365947425e-03  4.6467991672264793e-03 
 4.7076019179773092e-03  4.7692002646568289e-03  4.8316046175322300e-03  4.8948255230876802e-03 
 4.9588736658066901e-03  5.0237598699778207e-03  5.0894951015240126e-03  5.1560904698558525e-03 
 5.2235572297490915e-03  5.2919067832467295e-03  5.3611506815859919e-03  5.4313006271504947e-03 
 5.5023684754480062e-03  5.5743662371140383e-03  5.6473060799416734e-03  5.7212003309379533e-03 
 5.7960614784071723e-03  5.8719021740614294e-03  5.9487352351587980e-03  6.0265736466694779e-03 
 6.1054305634702689e-03  6.1853193125678014e-03  6.2662533953508166e-03  6.3482464898719356e-03 
 6.4313124531592833e-03  6.5154653235583605e-03  6.6007193231045575e-03  6.6870888599267087e-03 
 6.7745885306821126e-03  6.8632331230233717e-03  6.9530376180975814e-03  7.0440171930781495e-03 
 7.1361872237297912e-03  7.2295632870070610e-03  7.3241611636868931e-03  7.4199968410356013e-03 
 7.5170865155107540e-03  7.6154465954984280e-03  7.7150937040862339e-03  7.8160446818727018e-03 
 7.9183165898133456e-03  8.0219267121040289e-03  8.1268925591020200e-03  8.2332318702852889e-03 
 8.3409626172505236e-03  8.4501030067503733e-03  8.5606714837704340e-03  8.6726867346464693e-03 
 8.7861676902224930e-03  8.9011335290500957e-03  9.0176036806296645e-03  9.1355978286940306e-03 
 9.2551359145350513e-03  9.3762381403737459e-03  9.4989249727745195e-03  9.6232171461040610e-03 
 9.7491356660354724e-03  9.8767018130983316e-03  1.0005937146275108e-02  1.0136863506644705e-02 
 1.0269503021073639e-02  1.0403878105955547e-02  1.0540011470999595e-02  1.0677926123068492e-02 
 1.0817645370066692e-02  1.0959192824879468e-02  1.1102592409363586e-02  1.1247868358390133e-02 
 1.1395045223940260e-02  1.1544147879254544e-02  1.1695201523036611e-02  1.1848231683711782e-02 
 1.2003264223741438e-02  1.2160325343993847e-02  1.2319441588172131e-02  1.2480639847300279e-02 
 1.2643947364267751e-02  1.2809391738433601e-02  1.2977000930290838e-02  1.3146803266191812e-02 
 1.3318827443135438e-02  1.3493102533617050e-02  1.3669657990541744e-02  1.3848523652201936e-02 
 1.4029729747320177e-02  1.4213306900157830e-02  1.4399286135690654e-02  1.4587698884852104e-02 
 1.4778576989845228e-02  1.4971952709524080e-02  1.5167858724845535e-02  1.5366328144392476e-02 
 1.5567394509969152e-02  1.5771091802269915e-02  1.5977454446621991e-02  1.6186517318803433e-02 
 1.6398315750937226e-02  1.6612885537462509e-02  1.6830262941183893e-02  1.7050484699399997e-02 
 1.7273588030112117e-02  1.7499610638314119e-02  1.7728590722364761e-02  1.7960566980443245e-02 
 1.8195578617089311e-02  1.8433665349828904e-02  1.8674867415886524e-02  1.8919225578985416e-02 
 1.9166781136236748e-02  1.9417575925118915e-02  1.9671652330548118e-02  1.9929053292041619e-02 
 2.0189822310974548e-02  2.0454003457931764e-02  2.0721641380155875e-02  2.0992781309092746e-02 
 2.1267469068035703e-02  2.1545751079869793e-02  2.1827674374917370e-02  2.2113286598886266e-02 
 2.2402636020922139e-02  2.2695771541765983e-02  2.2992742702018523e-02  2.3293599690512652e-02 
 2.3598393352795500e-02  2.3907175199721430e-02  2.4219997416157501e-02  2.4536912869802859e-02 
 2.4857975120123423e-02  2.5183238427403672e-02  2.5512757761916693e-02  2.5846588813214312e-02 
 2.6184787999538744e-02  2.6527412477357435e-02  2.6874520151022596e-02  2.7226169682557241e-02 
 2.7582420501569185e-02  2.7943332815294698e-02  2.8308967618773825e-02  2.8679386705158613e-02 
 2.9054652676156281e-02  2.9434828952609109e-02  2.9819979785212666e-02  3.0210170265374359e-02 
 3.0605466336214030e-02  3.1005934803708522e-02  3.1411643347981931e-02  3.1822660534743911e-02 
 3.2239055826877264e-02  3.2660899596177434e-02  3.3088263135245453e-02  3.3521218669536598e-02 
 3.3959839369566640e-02  3.4404199363277842e-02  3.4854373748566793e-02  3.5310438605975998e-02 
 3.5772471011551878e-02  3.6240549049870653e-02  3.6714751827234861e-02  3.7195159485042532e-02 
 3.7681853213331257e-02  3.8174915264499495e-02  3.8674428967207422e-02  3.9180478740459719e-02 
 3.9693150107872451e-02  4.0212529712126951e-02  4.0738705329612518e-02  4.1271765885260839e-02 
 4.1811801467574579e-02  4.2358903343852457e-02  4.2913163975613740e-02  4.3474677034224384e-02 
 4.4043537416727785e-02  4.4619841261882454e-02  4.5203685966409925e-02  4.5795170201454856e-02 
 4.6394393929260772e-02  4.7001458420063882e-02  4.7616466269207999e-02  4.8239521414483406e-02 
 4.8870729153692588e-02  4.9510196162445855e-02  5.0158030512189589e-02  5.0814341688470842e-02 
 5.1479240609440501e-02  5.2152839644598728e-02  5.2835252633785697e-02  5.3526594906420775e-02 
 5.4226983300993528e-02  5.4936536184809606e-02  5.5655373473995247e-02  5.6383616653763104e-02 
 5.7121388798943913e-02  5.7868814594786176e-02  5.8626020358028337e-02  5.9393134058246609e-02 
 6.0170285339482120e-02  6.0957605542151100e-02  6.1755227725241717e-02  6.2563286688801359e-02 
 6.3381918996718037e-02  6.4211262999800248e-02  6.5051458859158459e-02  6.5902648569892613e-02 
 6.6764975985089778e-02  6.7638586840135517e-02  6.8523628777343609e-02  6.9420251370907946e-02 
 7.0328606152180881e-02  7.1248846635282415e-02  7.2181128343044465e-02  7.3125608833294553e-02 
 7.4082447725483627e-02  7.5051806727661569e-02  7.6033849663807052e-02  7.7028742501513633e-02 
 7.8036653380038817e-02  7.9057752638720016e-02  8.0092212845762262e-02  8.1140208827402666e-02 
 8.2201917697456439e-02  8.3277518887249588e-02  8.4367194175943239e-02  8.5471127721254717e-02 
 8.6589506090580637e-02  8.7722518292527266e-02  8.8870355808853399e-02  9.0033212626831283e-02 
 9.1211285272030859e-02  9.2404772841533089e-02  9.3613877037578008e-02  9.4838802201652195e-02 
 9.6079755349023965e-02  9.7336946203728861e-02  9.8610587234013516e-02  9.9900893688243467e-02 
 1.0120808363128052e-01  1.0253237798133628e-01  1.0387400054730787e-01  1.0523317806660214e-01 
 1.0661014024345479e-01  1.0800511978775103e-01  1.0941835245435404e-01  1.1085007708294811e-01 
 1.1230053563840310e-01  1.1376997325166711e-01  1.1525863826119419e-01  1.1676678225491414e-01 
 1.1829466011275160e-01  1.1984253004970065e-01  1.2141065365946492e-01  1.2299929595866672e-01 
 1.2460872543163579e-01  1.2623921407578359e-01  1.2789103744757177e-01  1.2956447470908161e-01 
 1.3125980867519330e-01  1.3297732586138208e-01  1.3471731653214042e-01  1.3648007475003285e-01 
 1.3826589842539386e-01  1.4007508936667498e-01  1.4190795333145134e-01  1.4376480007809533e-01 
 1.4564594341812670e-01  1.4755170126924713e-01  1.4948239570906965e-01  1.5143835302954933e-01 
 1.5341990379212891e-01  1.5542738288360358e-01  1.5746112957271782e-01  1.5952148756750253e-01 
 1.6160880507336273e-01  1.6372343485192489e-01  1.6586573428065468e-01  1.6803606541325439e-01 
 1.7023479504085101e-01  1.7246229475398483e-01  1.7471894100540902e-01  1.7700511517371109e-01 
 1.7932120362776685e-01  1.8166759779203748e-01  1.8404469421272143e-01  1.8645289462477149e-01 
 1.8889260601978944e-01  1.9136424071480707e-01  1.9386821642197086e-01  1.9640495631913513e-01 
 1.9897488912138009e-01  2.0157844915346607e-01  2.0421607642323517e-01  2.0688821669597382e-01 
 2.0959532156974808e-01  2.1233784855172474e-01  2.1511626113549129e-01  2.1793102887938728e-01 
 2.2078262748586078e-01  2.2367153888186339e-01  2.2659825130029695e-01  2.2956325936252603e-01 
 2.3256706416197012e-01  2.3561017334878970e-01  2.3869310121568063e-01  2.4181636878478932e-01 
 2.4498050389576895e-01  2.4818604129498426e-01  2.5143352272588526e-01  2.5472349702056302e-01 
 2.5805652019250375e-01  2.6143315553055657e-01  2.6485397369413022e-01  2.6831955280963626e-01 
 2.7183047856819365e-01  2.7538734432461187e-01  2.7899075119766953e-01  2.8264130817170452e-01 
 2.8633963219953412e-01  2.9008634830672159e-01  2.9388208969720642e-01  2.9772749786031782e-01 
 3.0162322267918851e-01  3.0556992254058379e-01  3.0956826444617447e-01  3.1361892412525894e-01 
 3.1772258614896398e-01  3.2187994404593867e-01  3.2609170041956259e-01  3.3035856706668715e-01 
 3.3468126509793134e-01  3.3906052505955087e-01  3.4349708705690229e-01  3.4799170087952264e-01 
 3.5254512612784555e-01  3.5715813234157556e-01  3.6183149912974222e-01  3.6656601630245572e-01 
 3.7136248400438693e-01  3.7622171284999356e-01  3.8114452406051658e-01  3.8613174960276603e-01 
 3.9118423232972921e-01  3.9630282612301249e-01  4.0148839603714953e-01  4.0674181844579810e-01 
 4.1206398118984894e-01  4.1745578372747300e-01  4.2291813728613209e-01  4.2845196501657867e-01 
 4.3405820214887014e-01  4.3973779615042530e-01  4.4549170688614836e-01  4.5132090678064846e-01 
 4.5722638098258211e-01  4.6320912753114468e-01  4.6927015752474260e-01  4.7541049529187052e-01 
 4.8163117856422660e-01  4.8793325865208803e-01  4.9431780062198999e-01  5.0078588347672126e-01 
 5.0733860033767897e-01  5.1397705862960874e-01  5.2070238026776194e-01  5.2751570184750241e-01 
 5.3441817483639364e-01  5.4141096576879910e-01  5.4849525644302999e-01  5.5567224412107141e-01 
 5.6294314173092308e-01  5.7030917807158643e-01  5.7777159802073486e-01  5.8533166274510107e-01 
 5.9299064991361727e-01  6.0074985391334390e-01  6.0861058606822571e-01  6.1657417486070420e-01 
 6.2464196615624012e-01  6.3281532343076485e-01  6.4109562800111108e-01  6.4948427925845909e-01 
 6.5798269490483730e-01  6.6659231119271678e-01  6.7531458316774207e-01  6.8415098491463666e-01 
 6.9310300980632744e-01  7.0217217075632765e-01  7.1136000047442338e-01  7.2066805172570503e-01 
 7.3009789759298782e-01  7.3965113174266750e-01  7.4932936869405298e-01  7.5913424409222408e-01 
 7.6906741498446118e-01  7.7913056010028403e-01  7.8932538013516995e-01  7.9965359803796954e-01 
 8.1011695930209038e-01  8.2071723226049009e-01  8.3145620838452827e-01  8.4233570258672952e-01 
 8.5335755352750853e-01  8.6452362392590709e-01  8.7583580087439905e-01  8.8729599615781274e-01 
 8.9890614657642720e-01  9.1066821427329692e-01  9.2258418706585721e-01  9.3465607878187118e-01 
 9.4688592959977136e-01  9.5927580639345367e-01  9.7182780308158778e-01  9.8454404098148496e-01 
 9.9742666916761802e-01  1.0104778648348125e+00  1.0236998336661991e+00  1.0370948102059800e+00 
 1.0506650582370716e+00  1.0644128711636895e+00  1.0783405723989399e+00  1.0924505157574806e+00 
 1.1067450858533223e+00  1.1212266985028334e+00  1.1358978011330199e+00  1.1507608731951440e+00 
 1.1658184265837606e+00  1.1810730060612304e+00  1.1965271896877927e+00  1.2121835892572623e+00 
 1.2280448507384332e+00  1.2441136547222420e+00  1.2603927168748099e+00  1.2768847883963861e+00 
 1.2935926564863107e+00  1.3105191448140572e+00  1.3276671139964393e+00  1.3450394620810633e+00 
 1.3626391250361030e+00  1.3804690772464865e+00  1.3985323320165750e+00  1.4168319420794162e+00 
 1.4353710001126661e+00  1.4541526392612569e+00  1.4731800336669065e+00  1.4924563990045572e+00 
 1.5119849930258300e+00  1.5317691161095948e+00  1.5518121118197437e+00  1.5721173674702500e+00 
 1.5926883146976505e+00  1.6135284300409871e+00  1.6346412355293545e+00  1.6560302992771305e+00 
 1.6776992360869964e+00  1.6996517080608480e+00  1.7218914252186970e+00  1.7444221461256761e+00 
 1.7672476785272442e+00  1.7903718799927033e+00  1.8137986585671400e+00  1.8375319734318907e+00 
 1.8615758355736551e+00  1.8859343084623623e+00  1.9106115087379054e+00  1.9356116069058653e+00 
 1.9609388280423390e+00  1.9865974525079726e+00  2.0125918166713737e+00  2.0389263136419560e+00 
 2.0656053940123855e+00  2.0926335666107438e+00  2.1200153992625292e+00  2.1477555195626321e+00 
 2.1758586156574071e+00  2.2043294370369821e+00  2.2331727953379334e+00  2.2623935651564646e+00 
 2.2919966848722222e+00  2.3219871574828974e+00  2.3523700514497410e+00  2.3831505015541481e+00 
 2.4143337097654469e+00  2.4459249461200434e+00  2.4779295496120763e+00  2.5103529290957018e+00 
 2.5432005641992275e+00  2.5764780062511656e+00  2.6101908792184276e+00  2.6443448806567842e+00 
 2.6789457826737682e+00  2.7139994329041746e+00  2.7495117554983226e+00  2.7854887521232539e+00 
 2.8219365029770267e+00  2.8588611678162845e+00  2.8962689869972693e+00  2.9341662825304571e+00 
 2.9725594591489921e+00  3.0114550053911024e+00  3.0508594946966778e+00  3.0907795865181984e+00 
 3.1312220274462002e+00  3.1721936523494461e+00  3.2137013855300669e+00  3.2557522418937621e+00 
 3.2983533281353434e+00  3.3415118439397791e+00  3.3852350831989613e+00  3.4295304352443927e+00 
 3.4744053860959934e+00  3.5198675197272657e+00  3.5659245193469973e+00  3.6125841686977433e+00 
 3.6598543533712995e+00  3.7077430621413825e+00  3.7562583883137544e+00  3.8054085310940104e+00 
 3.8552017969732617e+00  3.9056466011319539e+00  3.9567514688620613e+00  4.0085250370078516e+00 
 4.0609760554255727e+00  4.1141133884621768e+00  4.1679460164534197e+00  4.2224830372415569e+00 
 4.2777336677129068e+00  4.3337072453555194e+00  4.3904132298372396e+00  4.4478612046044104e+00 
 4.5060608785014997e+00  4.5650220874119167e+00  4.6247547959203006e+00  4.6852690989965584e+00 
 4.7465752237019405e+00  4.8086835309174365e+00  4.8716045170947888e+00  4.9353488160304213e+00 
 4.9999272006625786e+00  5.0653505848919504e+00  5.1316300254261922e+00  5.1987767236485078e+00 
 5.2668020275107112e+00  5.3357174334510624e+00  5.4055345883371908e+00  5.4762652914344425e+00 
 5.5479214963999883e+00  5.6205153133030157e+00  5.6940590106713609e+00  5.7685650175649217e+00 
 5.8440459256761930e+00  5.9205144914582988e+00  5.9979836382808580e+00  6.0764664586140684e+00 
 6.1559762162413616e+00  6.2365263485010187e+00  6.3181304685571202e+00  6.4008023677001580e+00 
 6.4845560176778667e+00  6.5694055730564331e+00  6.6553653736126668e+00  6.7424499467574543e+00 
 6.8306740099909282e+00  6.9200524733897550e+00  7.0106004421269770e+00  7.1023332190248283e+00 
 7.1952663071409342e+00  7.2894154123883759e+00  7.3847964461900260e+00  7.4814255281676108e+00 
 7.5793189888659738e+00  7.6784933725129667e+00  7.7789654398154724e+00  7.8807521707919959e+00 
 7.9838707676423519e+00  8.0883386576548073e+00  8.1941734961514374e+00  8.3013931694718419e+00 
 8.4100157979960066e+00  8.5200597392066832e+00  8.6315435907918516e+00  8.7444861937877736e+00 
 8.8589066357631658e+00  8.9748242540450605e+00  9.0922586389868378e+00  9.2112296372790574e+00 
 9.3317573553035977e+00  9.4538621625316672e+00  9.5775646949663109e+00  9.7028858586299371e+00 
 9.8298468330974753e+00  9.9584690750757954e+00  1.0088774322029941e+01  1.0220784595856749e+01 
 1.0354522206606715e+01  1.0490009756254361e+01  1.0627270142518054e+01  1.0766326562729761e+01 
 1.0907202517755467e+01  1.1049921815966874e+01  1.1194508577265061e+01  1.1340987237156819e+01 
 1.1489382550884303e+01  1.1639719597608728e+01  1.1792023784648809e+01  1.1946320851774653e+01 
 1.2102636875557845e+01  1.2260998273778453e+01  1.2421431809889691e+01  1.2583964597541012e+01 
 1.2748624105160392e+01  1.2915438160596478e+01  1.3084434955821701e+01  1.3255643051696678e+01 
 1.3429091382797102e+01  1.3604809262303757e+01  1.3782826386956504e+01  1.3963172842073105e+01 
 1.4145879106633720e+01  1.4330976058431917e+01  1.4518494979293097e+01  1.4708467560361202e+01 
 1.4900925907454583e+01  1.5095902546491967e+01  1.5293430428989419e+01  1.5493542937629213e+01 
 1.5696273891901598e+01  1.5901657553820392e+01  1.6109728633713239e+01  1.6320522296087891e+01 
 1.6534074165575010e+01  1.6750420332948803e+01  1.6969597361226491e+01  1.7191642291847504e+01 
 1.7416592650933612e+01  1.7644486455630901e+01  1.7875362220534782e+01  1.8109258964199018e+01 
 1.8346216215729999e+01  1.8586274021467204e+01  1.8829472951751164e+01  1.9075854107779939e+01 
 1.9325459128555313e+01  1.9578330197919868e+01  1.9834510051686191e+01  2.0094041984859345e+01 
 2.0356969858953661e+01  2.0623338109405701e+01  2.0893191753083773e+01  2.1166576395895930e+01 
 2.1443538240497492e+01  2.1724124094099395e+01  2.2008381376378718e+01  2.2296358127492724e+01 
 2.2588103016197767e+01  2.2883665348074416e+01  2.3183095073860233e+01  2.3486442797891534e+01 
 2.3793759786655688e+01  2.4105097977455237e+01  2.4420509987185440e+01  2.4740049121226654e+01 
 2.5063769382453067e+01  2.5391725480359352e+01  2.5723972840306537e+01  2.6060567612889280e+01 
 2.6401566683425273e+01  2.6747027681569044e+01  2.7097008991051517e+01  2.7451569759546981e+01 
 2.7810769908669197e+01  2.8174670144098300e+01  2.8543331965840199e+01  2.8916817678620220e+01 
 2.9295190402412747e+01  2.9678514083108666e+01  3.0066853503322370e+01  3.0460274293340152e+01 
 3.0858842942211911e+01  3.1262626808987935e+01  3.1671694134102754e+01  3.2086114050907987e+01 
 3.2505956597355819e+01  3.2931292727835931e+01  3.3362194325166712e+01  3.3798734212743689e+01 
 3.4240986166846881e+01  3.4689024929109131e+01  3.5142926219147633e+01  3.5602766747360739e+01 
 3.6068624227892172e+01  3.6540577391764941e+01  3.7018706000187017e+01  3.7503090858031236e+01 
 3.7993813827491444e+01  3.8490957841917485e+01  3.8994606919830908e+01  3.9504846179124854e+01 