  <PP_INFO>

############################################################
#    Opium Parameter File                                  #
############################################################
#-----------------------------------------------------------
#Command line   : opium Sr Sr.log ae ps nl tc2 ke upf qmcpack rpt 
 
#Opium version  : 4.1 
#Compile Host   : py-garuda.cos.ncsu.edu 
#Compile OS     : Linux 5.15.0-113-generic x86_64 
#Compile Date   : Sat Jul 13 02:11:52 EDT 2024 
#-----------------------------------------------------------
#Execution Host : py-garuda.cos.ncsu.edu 
#Execution Date : Wed Apr 30 11:00:44 2025
 
#-----------------------------------------------------------
############################################################
[Atom]
Sr
11            
100   2.00  -
200   2.00  -
210   6.00  -
300   2.00  -
310   6.00  -
320   10.00  -
400   2.00  -
410   6.00  -
420   2.00  -
500   0.00  -
510   0.00  -

[Pseudo]
3 -1 -1 -1
g

[Gaussinfo]
2 4
1 1 1 3
2 0.82500226 15.38617584
2 0.39778807 5.07778168
2 0.45325915 -2.25610319
1 3.00005559 2.00000000
3 3.00230173 6.00011118
2 2.99653136 -10.00027654

[KBdesign]
s

[Relativity]
nrl

[XC]
pbe

[Configs]
3

420  1.00 -
500  1.00 -
510  0.00 -

420  1.00 -
500  0.00 -
510  0.00 -

420  0.00 -
500  2.00 -
510  0.00 -
############################################################
  </PP_INFO>



<PP_HEADER>
   0         Version Number
   Sr        Element
   NC        Norm - Conserving pseudopotential
    F      Nonlinear Core Correction
SLA  PW   PBE  PBE     PBE  Exchange-Correlation functional
 2          Z valence
 0          Total energy
 0.000000   0.000000     Suggested cutoff for wfc and rho
 2           Max angular momentum component
 1170           Number of points in mesh
 3  2     Number of Wavefuncitons, Number of Projectors
 Wavefunctions         nl  l   occ
                      5S  0  0.000000
                      5P  1  0.000000
                      4D  2  2.000000
</PP_HEADER>
<PP_MESH>
  <PP_R>
 2.9744417462950136e-05  3.0133619220147625e-05  3.0527913630714250e-05  3.0927367331343854e-05 
 3.1332047830662578e-05  3.1742023520638022e-05  3.2157363688137505e-05  3.2578138526637927e-05 
 3.3004419148088468e-05  3.3436277594928750e-05  3.3873786852264151e-05  3.4317020860200466e-05 
 3.4766054526339992e-05  3.5220963738441039e-05  3.5681825377243216e-05  3.6148717329460310e-05 
 3.6621718500943536e-05  3.7100908830016643e-05  3.7586369300985784e-05  3.8078181957825980e-05 
 3.8576429918046805e-05  3.9081197386739414e-05  3.9592569670807417e-05  4.0110633193383970e-05 
 4.0635475508437353e-05  4.1167185315568027e-05  4.1705852474998911e-05  4.2251568022762038e-05 
 4.2804424186083827e-05  4.3364514398971735e-05  4.3931933318004807e-05  4.4506776838330876e-05 
 4.5089142109873106e-05  4.5679127553748374e-05  4.6276832878900967e-05  4.6882359098953436e-05 
 4.7495808549278181e-05  4.8117284904292372e-05  4.8746893194979185e-05  4.9384739826638266e-05 
 5.0030932596868505e-05  5.0685580713786120e-05  5.1348794814480911e-05  5.2020686983714449e-05 
 5.2701370772862495e-05  5.3390961219105513e-05  5.4089574864870221e-05  5.4797329777525509e-05 
 5.5514345569336144e-05  5.6240743417677560e-05  5.6976646085514927e-05  5.7722177942150680e-05 
 5.8477464984243007e-05  5.9242634857099711e-05  6.0017816876250465e-05  6.0803142049301508e-05 
 6.1598743098076252e-05  6.2404754481045518e-05  6.3221312416051454e-05  6.4048554903328603e-05 
 6.4886621748826105e-05  6.5735654587835589e-05  6.6595796908927650e-05  6.7467194078201748e-05 
 6.8349993363853515e-05  6.9244343961063356e-05  7.0150397017210880e-05  7.1068305657419085e-05 
 7.1998225010432782e-05  7.2940312234835971e-05  7.3894726545611875e-05  7.4861629241050568e-05 
 7.5841183730008917e-05  7.6833555559526986e-05  7.7838912442805918e-05  7.8857424287551823e-05 
 7.9889263224690627e-05  8.0934603637458576e-05  8.1993622190873502e-05  8.3066497861591384e-05 
 8.4153411968154162e-05  8.5254548201632832e-05  8.6370092656671643e-05  8.7500233862938616e-05 
 8.8645162816987434e-05  8.9805073014536472e-05  9.0980160483169654e-05  9.2170623815466073e-05 
 9.3376664202562303e-05  9.4598485468154261e-05  9.5836294102943884e-05  9.7090299299536564e-05 
 9.8360712987795160e-05  9.9647749870656702e-05  1.0095162746041767e-04  1.0227256611549411e-04 
 1.0361078907766273e-04  1.0496652250978911e-04  1.0633999553405012e-04  1.0773144027065583e-04 
 1.0914109187707857e-04  1.1056918858779488e-04  1.1201597175454789e-04  1.1348168588713636e-04 
 1.1496657869473704e-04  1.1647090112776875e-04  1.1799490742030302e-04  1.1953885513303065e-04 
 1.2110300519678979e-04  1.2268762195666403e-04  1.2429297321665738e-04  1.2591933028495363e-04 
 1.2756696801976826e-04  1.2923616487579991e-04  1.3092720295129030e-04  1.3264036803569874e-04 
 1.3437594965800211e-04  1.3613424113562543e-04  1.3791553962401337e-04  1.3972014616685008e-04 
 1.4154836574693645e-04  1.4340050733773296e-04  1.4527688395557652e-04  1.4717781271258160e-04 
 1.4910361487023257e-04  1.5105461589367760e-04  1.5303114550673327e-04  1.5503353774760855e-04 
 1.5706213102535793e-04  1.5911726817707369e-04  1.6119929652582587e-04  1.6330856793936085e-04 
 1.6544543888956788e-04  1.6761027051272328e-04  1.6980342867052396e-04  1.7202528401191858e-04 
 1.7427621203574802e-04  1.7655659315420573e-04  1.7886681275712830e-04  1.8120726127712728e-04 
 1.8357833425557273e-04  1.8598043240944159e-04  1.8841396169903910e-04  1.9087933339660717e-04 
 1.9337696415583055e-04  1.9590727608225213e-04  1.9847069680460990e-04  2.0106765954710709e-04 
 2.0369860320262824e-04  2.0636397240691301e-04  2.0906421761370095e-04  2.1179979517085848e-04 
 2.1457116739750386e-04  2.1737880266213964e-04  2.2022317546180778e-04  2.2310476650228171e-04 
 2.2602406277930526e-04  2.2898155766089764e-04  2.3197775097073291e-04  2.3501314907261177e-04 
 2.3808826495603795e-04  2.4120361832291476e-04  2.4435973567537612e-04  2.4755715040476642e-04 
 2.5079640288178508e-04  2.5407804054781053e-04  2.5740261800741879e-04  2.6077069712211347e-04 
 2.6418284710528128e-04  2.6763964461839080e-04  2.7114167386844891e-04  2.7468952670673411e-04 
 2.7828380272882047e-04  2.8192510937591065e-04  2.8561406203749407e-04  2.8935128415535092e-04 
 2.9313740732891410e-04  2.9697307142201128e-04  3.0085892467100343e-04  3.0479562379433830e-04 
 3.0878383410353746e-04  3.1282422961563555e-04  3.1691749316709055e-04  3.2106431652918516e-04 
 3.2526540052493731e-04  3.2952145514754123e-04  3.3383319968035815e-04  3.3820136281847659e-04 
 3.4262668279186293e-04  3.4710990749012586e-04  3.5165179458890978e-04  3.5625311167794478e-04 
 3.6091463639076994e-04  3.6563715653615685e-04  3.7042147023125022e-04  3.7526838603645156e-04 
 3.8017872309206821e-04  3.8515331125674944e-04  3.9019299124773530e-04  3.9529861478293906e-04 
 4.0047104472489009e-04  4.0571115522655937e-04  4.1101983187909387e-04  4.1639797186148283e-04 
 4.2184648409218374e-04  4.2736628938273223e-04  4.3295832059335909e-04  4.3862352279064884e-04 
 4.4436285340725666e-04  4.5017728240371728e-04  4.5606779243236923e-04  4.6203537900342767e-04 
 4.6808105065322664e-04  4.7420582911466419e-04  4.8041074948987789e-04  4.8669686042517941e-04 
 4.9306522428827838e-04  4.9951691734782496e-04  5.0605302995530225e-04  5.1267466672929684e-04 
 5.1938294674218398e-04  5.2617900370925219e-04  5.3306398618030426e-04  5.4003905773376490e-04 
 5.4710539717332742e-04  5.5426419872717616e-04  5.6151667224981199e-04  5.6886404342652245e-04 
 5.7630755398052310e-04  5.8384846188281431e-04  5.9148804156477944e-04  5.9922758413356782e-04 
 6.0706839759029467e-04  6.1501180705109549e-04  6.2305915497107549e-04  6.3121180137118687e-04 
 6.3947112406807522e-04  6.4783851890693400e-04  6.5631539999740638e-04  6.6490319995257240e-04 
 6.7360337013106441e-04  6.8241738088235012e-04  6.9134672179522398e-04  7.0039290194955322e-04 
 7.0955745017131492e-04  7.1884191529097128e-04  7.2824786640522459e-04  7.3777689314220092e-04 
 7.4743060593009873e-04  7.5721063626935580e-04  7.6711863700837726e-04  7.7715628262286932e-04 
 7.8732526949883185e-04  7.9762731621924998e-04  8.0806416385453968e-04  8.1863757625679141e-04 
 8.2934934035786717e-04  8.4020126647139492e-04  8.5119518859871663e-04  8.6233296473883889e-04 
 8.7361647720243763e-04  8.8504763292997517e-04  8.9662836381397678e-04  9.0836062702552567e-04 
 9.2024640534502772e-04  9.3228770749730842e-04  9.4448656849109125e-04  9.5684504996291836e-04 
 9.6936524052557355e-04  9.8204925612105994e-04  9.9489924037820328e-04  1.0079173649749267e-03 
 1.0211058300052724e-03  1.0344668643512192e-03  1.0480027260593723e-03  1.0617157027225776e-03 
 1.0756081118665291e-03  1.0896823013414377e-03  1.1039406497188220e-03  1.1183855666934942e-03 
 1.1330194934908034e-03  1.1478449032792091e-03  1.1628643015882505e-03  1.1780802267319895e-03 
 1.1934952502379915e-03  1.2091119772819178e-03  1.2249330471278087e-03  1.2409611335741227e-03 
 1.2571989454056185e-03  1.2736492268511429e-03  1.2903147580474140e-03  1.3071983555088685e-03 
 1.3243028726036626e-03  1.3416312000358954e-03  1.3591862663341467e-03  1.3769710383464038e-03 
 1.3949885217414649e-03  1.4132417615169083e-03  1.4317338425136998e-03  1.4504678899375421e-03 
 1.4694470698870367e-03  1.4886745898887689e-03  1.5081536994393813e-03  1.5278876905547511e-03 
 1.5478798983263457e-03  1.5681337014848606e-03  1.5886525229712365e-03  1.6094398305151411e-03 
 1.6304991372210252e-03  1.6518340021618454e-03  1.6734480309805572e-03  1.6953448764994716e-03 
 1.7175282393375991e-03  1.7400018685360579e-03  1.7627695621916721e-03  1.7858351680988590e-03 
 1.8092025843999147e-03  1.8328757602438111e-03  1.8568586964536108e-03  1.8811554462026161e-03 
 1.9057701156993594e-03  1.9307068648815738e-03  1.9559699081192219e-03  1.9815635149267397e-03 
 2.0074920106845930e-03  2.0337597773702775e-03  2.0603712542988824e-03  2.0873309388733468e-03 
 2.1146433873445321e-03  2.1423132155812324e-03  2.1703450998502788e-03  2.1987437776068313e-03 
 2.2275140482950219e-03  2.2566607741590738e-03  2.2861888810650293e-03  2.3161033593332354e-03 
 2.3464092645817192e-03  2.3771117185806003e-03  2.4082159101176752e-03  2.4397270958753468e-03 
 2.4716506013190078e-03  2.5039918215970596e-03  2.5367562224527036e-03  2.5699493411476672e-03 
 2.6035767873980134e-03  2.6376442443221942e-03  2.6721574694015160e-03  2.7071222954531578e-03 
 2.7425446316159444e-03  2.7784304643489956e-03  2.8147858584434545e-03  2.8516169580474538e-03 
 2.8889299877044869e-03  2.9267312534053745e-03  2.9650271436539918e-03  3.0038241305469404e-03 
 3.0431287708673409e-03  3.0829477071929587e-03  3.1232876690188063e-03  3.1641554738944446e-03 
 3.2055580285761673e-03  3.2475023301942571e-03  3.2899954674355195e-03  3.3330446217412863e-03 
 3.3766570685210997e-03  3.4208401783822596e-03  3.4656014183754966e-03  3.5109483532569066e-03 
 3.5568886467664132e-03  3.6034300629229623e-03  3.6505804673366573e-03  3.6983478285380678e-03 
 3.7467402193249264e-03  3.7957658181264585e-03  3.8454329103855397e-03  3.8957498899589798e-03 
 3.9467252605360839e-03  3.9983676370758054e-03  4.0506857472626962e-03  4.1036884329818972e-03 
 4.1573846518134479e-03  4.2117834785461326e-03  4.2668941067111480e-03  4.3227258501358145e-03 
 4.3792881445176594e-03  4.4365905490190575e-03  4.4946427478827541e-03  4.5534545520685274e-03 
 4.6130359009112628e-03  4.6733968638007243e-03  4.7345476418833047e-03  4.7964985697860488e-03 
 4.8592601173632127e-03  4.9228428914657200e-03  4.9872576377337288e-03  5.0525152424126694e-03 
 5.1186267341930521e-03  5.1856032860743409e-03  5.2534562172532129e-03  5.3221969950365362e-03 
 5.3918372367793678e-03  5.4623887118483054e-03  5.5338633436105593e-03  5.6062732114490130e-03 
 5.6796305528036741e-03  5.7539477652398287e-03  5.8292374085432619e-03  5.9055122068428874e-03 
 5.9827850507611600e-03  6.0610689995926233e-03  6.1403772835109437e-03  6.2207233058048685e-03 
 6.3021206451433984e-03  6.3845830578706138e-03  6.4681244803305353e-03  6.5527590312223936e-03 
 6.6385010139867300e-03  6.7253649192227051e-03  6.8133654271370523e-03  6.9025174100250499e-03 
 6.9928359347840004e-03  7.0843362654595546e-03  7.1770338658253786e-03  7.2709444019965616e-03 
 7.3660837450772324e-03  7.4624679738428141e-03  7.5601133774573694e-03  7.6590364582265246e-03 
 7.7592539343863606e-03  7.8607827429288818e-03  7.9636400424643820e-03  8.0678432161212926e-03 
 8.1734098744839761e-03  8.2803578585689524e-03  8.3887052428400794e-03  8.4984703382631772e-03 
 8.6096716954006287e-03  8.7223281075464506e-03  8.8364586139024291e-03  8.9520825027957843e-03 
 9.0692193149389342e-03  9.1878888467319293e-03  9.3081111536080854e-03  9.4299065534234061e-03 
 9.5532956298903463e-03  9.6782992360565142e-03  9.8049384978288537e-03  9.9332348175440299e-03 
 1.0063209877585431e-02  1.0194885644047557e-02  1.0328284370448340e-02  1.0463428601490046e-02 
 1.0600341176869376e-02  1.0739045235137435e-02  1.0879564217610205e-02  1.1021921872330160e-02 
 1.1166142258079778e-02  1.1312249748447510e-02  1.1460269035946980e-02  1.1610225136190073e-02 
 1.1762143392114642e-02  1.1916049478267516e-02  1.2071969405143568e-02  1.2229929523581555e-02 
 1.2389956529217433e-02  1.2552077466996043e-02  1.2716319735741735e-02  1.2882711092788837e-02 
 1.3051279658672721e-02  1.3222053921882228e-02  1.3395062743674298e-02  1.3570335362951597e-02 
 1.3747901401203957e-02  1.3927790867514445e-02  1.4110034163631033e-02  1.4294662089104519e-02 
 1.4481705846493741e-02  1.4671197046638884e-02  1.4863167714003776e-02  1.5057650292088109e-02 
 1.5254677648910475e-02  1.5454283082563124e-02  1.5656500326839403e-02  1.5861363556934904e-02 
 1.6068907395223108e-02  1.6279166917106656e-02  1.6492177656945189e-02  1.6707975614060722e-02 
 1.6926597258821632e-02  1.7148079538806222e-02  1.7372459885046973e-02  1.7599776218356414e-02 
 1.7830066955735930e-02  1.8063371016868252e-02  1.8299727830694990e-02  1.8539177342080243e-02 
 1.8781760018561338e-02  1.9027516857187978e-02  1.9276489391450814e-02  1.9528719698300733e-02 
 1.9784250405259888e-02  2.0043124697625959e-02  2.0305386325770509e-02  2.0571079612532895e-02 
 2.0840249460710961e-02  2.1112941360649697e-02  2.1389201397929224e-02  2.1669076261153372e-02 
 2.1952613249840169e-02  2.2239860282415515e-02  2.2530865904311609e-02  2.2825679296171169e-02 
 2.3124350282159110e-02  2.3426929338382925e-02  2.3733467601423284e-02  2.4044016876976233e-02 
 2.4358629648608476e-02  2.4677359086627253e-02  2.5000259057066151e-02  2.5327384130788728e-02 
 2.5658789592711031e-02  2.5994531451144900e-02  2.6334666447263521e-02  2.6679252064690778e-02 
 2.7028346539216163e-02  2.7382008868636766e-02  2.7740298822728018e-02  2.8103276953344879e-02 
 2.8471004604655376e-02  2.8843543923507808e-02  2.9220957869933728e-02  2.9603310227788383e-02 
 2.9990665615530276e-02  3.0383089497141868e-02  3.0780648193193177e-02  3.1183408892050086e-02 
 3.1591439661229258e-02  3.2004809458901849e-02  3.2423588145547542e-02  3.2847846495761106e-02 
 3.3277656210213516e-02  3.3713089927769481e-02  3.4154221237763661e-02  3.4601124692437375e-02 
 3.5053875819538158e-02  3.5512551135084031e-02  3.5977228156295046e-02  3.6447985414693754e-02 
 3.6924902469377276e-02  3.7408059920462963e-02  3.7897539422710014e-02  3.8393423699319307e-02 
 3.8895796555913853e-02  3.9404742894702138e-02  3.9920348728826688e-02  4.0442701196900709e-02 
 4.0971888577734546e-02  4.1508000305255081e-02  4.2051126983620256e-02  4.2601360402531416e-02 
 4.3158793552745961e-02  4.3723520641793023e-02  4.4295637109894793e-02  4.4875239646096007e-02 
 4.5462426204604812e-02  4.6057296021347179e-02  4.6659949630737968e-02  4.7270488882671546e-02 
 4.7889016959734632e-02  4.8515638394644407e-02  4.9150459087914787e-02  4.9793586325753918e-02 
 5.0445128798195606e-02  5.1105196617468485e-02  5.1773901336605026e-02  5.2451355968294339e-02 
 5.3137675003981602e-02  5.3832974433217343e-02  5.4537371763259977e-02  5.5250986038934836e-02 
 5.5973937862753009e-02  5.6706349415293324e-02  5.7448344475851426e-02  5.8200048443358555e-02 
 5.8961588357574375e-02  5.9733092920556889e-02  6.0514692518413529e-02  6.1306519243336598e-02 
 6.2108706915927236e-02  6.2921391107811461e-02  6.3744709164551841e-02  6.4578800228859604e-02 
 6.5423805264109833e-02  6.6279867078164689e-02  6.7147130347508258e-02  6.8025741641697210e-02 
 6.8915849448131464e-02  6.9817604197148830e-02  7.0731158287448234e-02  7.1656666111845152e-02 
 7.2594284083364768e-02  7.3544170661675901e-02  7.4506486379871090e-02  7.5481393871597122e-02 
 7.6469057898540471e-02  7.7469645378272431e-02  7.8483325412458574e-02  7.9510269315437393e-02 
 8.0550650643172586e-02  8.1604645222584815e-02  8.2672431181266617e-02  8.3754188977586436e-02 
 8.4850101431186542e-02  8.5960353753879962e-02  8.7085133580951740e-02  8.8224631002869744e-02 
 8.9379038597410393e-02  9.0548551462204765e-02  9.1733367247710557e-02  9.2933686190615497e-02 
 9.4149711147677992e-02  9.5381647630009697e-02  9.6629703837808417e-02  9.7894090695543778e-02 
 9.9175021887604076e-02  1.0047271389440954e-01  1.0178738602899794e-01  1.0311926047408905e-01 
 1.0446856231963411e-01  1.0583551960085646e-01  1.0722036333679014e-01  1.0862332756932258e-01 
 1.1004464940274825e-01  1.1148456904383992e-01  1.1294332984244404e-01  1.1442117833260756e-01 
 1.1591836427424279e-01  1.1743514069533730e-01  1.1897176393471651e-01  1.2052849368536481e-01 
 1.2210559303831536e-01  1.2370332852711255e-01  1.2532197017285671e-01  1.2696179152983847e-01 
 1.2862306973177015e-01  1.3030608553862183e-01  1.3201112338407062e-01  1.3373847142357059e-01 
 1.3548842158305160e-01  1.3726126960825574e-01  1.3905731511471875e-01  1.4087686163840604e-01 
 1.4272021668701074e-01  1.4458769179192349e-01  1.4647960256088174e-01  1.4839626873130843e-01 
 1.5033801422434845e-01  1.5230516719961112e-01  1.5429806011063160e-01  1.5631702976105508e-01 
 1.5836241736155779e-01  1.6043456858751251e-01  1.6253383363740828e-01  1.6466056729203504e-01 
 1.6681512897444223e-01  1.6899788281068226e-01  1.7120919769134857e-01  1.7344944733391920e-01 
 1.7571901034591572e-01  1.7801827028888895e-01  1.8034761574324171e-01  1.8270744037389983e-01 
 1.8509814299684255e-01  1.8752012764650319e-01  1.8997380364405247e-01  1.9245958566657331e-01 
 1.9497789381714425e-01  1.9752915369583651e-01  2.0011379647164187e-01  2.0273225895534111e-01 
 2.0538498367332622e-01  2.0807241894238823e-01  2.1079501894548403e-01  2.1355324380849411e-01 
 2.1634755967798522e-01  2.1917843879999002e-01  2.2204635959981792e-01  2.2495180676290999e-01 
 2.2789527131675208e-01  2.3087725071385948e-01  2.3389824891584773e-01  2.3695877647860317e-01 
 2.4005935063856879e-01  2.4320049540015637e-01  2.4638274162430726e-01  2.4960662711820741e-01 
 2.5287269672617851e-01  2.5618150242175775e-01  2.5953360340098303e-01  2.6292956617689817e-01 
 2.6636996467529506e-01  2.6985538033170831e-01  2.7338640218967952e-01  2.7696362700030691e-01 
 2.8058765932309759e-01  2.8425911162813960e-01  2.8797860439961093e-01  2.9174676624064277e-01 
 2.9556423397955478e-01  2.9943165277748085e-01  3.0334967623740311e-01  3.0731896651461055e-01 
 3.1134019442860783e-01  3.1541403957648334e-01  3.1954119044776319e-01  3.2372234454076765e-01 
 3.2795820848049001e-01  3.3224949813801780e-01  3.3659693875151692e-01  3.4100126504879824e-01 
 3.4546322137148894e-01  3.4998356180082718e-01  3.5456305028510454e-01  3.5920246076877449e-01 
 3.6390257732325088e-01  3.6866419427941827e-01  3.7348811636187534e-01  3.7837515882493539e-01 
 3.8332614759040706e-01  3.8834191938717416e-01  3.9342332189260898e-01  3.9857121387582922e-01 
 4.0378646534283252e-01  4.0906995768352966e-01  4.1442258382070135e-01  4.1984524836090453e-01 
 4.2533886774735308e-01  4.3090437041479857e-01  4.3654269694643821e-01  4.4225480023287567e-01 
 4.4804164563316173e-01  4.5390421113794222e-01  4.5984348753474091e-01  4.6586047857540502e-01 
 4.7195620114574138e-01  4.7813168543737278e-01  4.8438797512184356e-01  4.9072612752699946e-01 
 4.9714721381568294e-01  5.0365231916675979e-01  5.1024254295851701e-01  5.1691899895446092e-01 
 5.2368281549154527e-01  5.3053513567086363e-01  5.3747711755083516e-01  5.4450993434292028e-01 
 5.5163477460989574e-01  5.5885284246672440e-01  5.6616535778405375e-01  5.7357355639437690e-01 
 5.8107869030089132e-01  5.8868202788909008e-01  5.9638485414112219e-01  6.0418847085295790e-01 
 6.1209419685439581e-01  6.2010336823194445e-01  6.2821733855463024e-01  6.3643747910274973e-01 
 6.4476517909962050e-01  6.5320184594636255e-01  6.6174890545975318e-01  6.7040780211319295e-01 
 6.7917999928082506e-01  6.8806697948484996e-01  6.9707024464607370e-01  7.0619131633773724e-01 
 7.1543173604266541e-01  7.2479306541378163e-01  7.3427688653803036e-01  7.4388480220375397e-01 
 7.5361843617156798e-01  7.6347943344877967e-01  7.7346946056740051e-01  7.8359020586578798e-01 
 7.9384337977398733e-01  8.0423071510279254e-01  8.1475396733659688e-01  8.2541491493007446e-01 
 8.3621535960874249e-01  8.4715712667345799e-01  8.5824206530889702e-01  8.6947204889607266e-01 
 8.8084897532893924e-01  8.9237476733514198e-01  9.0405137280096282e-01  9.1588076510051675e-01 
 9.2786494342925740e-01  9.4000593314184611e-01  9.5230578609444061e-01  9.6476658099146506e-01 
 9.7739042373691654e-01  9.9017944779026179e-01  1.0031358145270064e+00  1.0162617136039662e+00 
 1.0295593633293263e+00  1.0430310110375400e+00  1.0566789334691338e+00  1.0705054371554819e+00 
 1.0845128588086159e+00  1.0987035657161339e+00  1.1130799561412787e+00  1.1276444597282493e+00 
 1.1423995379128171e+00  1.1573476843383135e+00  1.1724914252770624e+00  1.1878333200573263e+00 
 1.2033759614958379e+00  1.2191219763359937e+00  1.2350740256917807e+00  1.2512348054975031e+00 
 1.2676070469634144e+00  1.2841935170372898e+00  1.3009970188720497e+00  1.3180203922994973e+00 
 1.3352665143102598e+00  1.3527382995400041e+00  1.3704387007620187e+00  1.3883707093862387e+00 
 1.4065373559648016e+00  1.4249417107042177e+00  1.4435868839842416e+00  1.4624760268835355e+00 
 1.4816123317122072e+00  1.5009990325513189e+00  1.5206394057994546e+00  1.5405367707264395e+00 
 1.5606944900343063e+00  1.5811159704255899e+00  1.6018046631790845e+00  1.6227640647331063e+00 
 1.6439977172764038e+00  1.6655092093467945e+00  1.6873021764376377e+00  1.7093803016122411e+00 
 1.7317473161263077e+00  1.7544070000585261e+00  1.7773631829494123e+00  1.8006197444485132e+00 
 1.8241806149700754e+00  1.8480497763572938e+00  1.8722312625552537e+00  1.8967291602926770e+00 
 1.9215476097725888e+00  1.9466908053720211e+00  1.9721629963508776e+00  1.9979684875700523e+00 
 2.0241116402189845e+00  2.0505968725526960e+00  2.0774286606384869e+00  2.1046115391124074e+00 
 2.1321501019456170e+00  2.1600490032207786e+00  2.1883129579186105e+00  2.2169467427147267e+00 
 2.2459551967869098e+00  2.2753432226329400e+00  2.3051157868991328e+00  2.3352779212197099e+00 
 2.3658347230671604e+00  2.3967913566137247e+00  2.4281530536041522e+00  2.4599251142398777e+00 
 2.4921129080747741e+00  2.5247218749226006e+00  2.5577575257763709e+00  2.5912254437397082e+00 
 2.6251312849704047e+00  2.6594807796363278e+00  2.6942797328838308e+00  2.7295340258188374e+00 
 2.7652496165007623e+00  2.8014325409494378e+00  2.8380889141652141e+00  2.8752249311624105e+00 
 2.9128468680162869e+00  2.9509610829237150e+00  2.9895740172777305e+00  3.0286921967561411e+00 
 3.0683222324243840e+00  3.1084708218528099e+00  3.1491447502485963e+00  3.1903508916024381e+00 
 3.2320962098503045e+00  3.2743877600503373e+00  3.3172326895751785e+00  3.3606382393198921e+00 
 3.4046117449256950e+00  3.4491606380196957e+00  3.4942924474708583e+00  3.5400148006623966e+00 
 3.5863354247808252e+00  3.6332621481218670e+00  3.6808029014134562e+00  3.7289657191560517e+00 
 3.7777587409804836e+00  3.8271902130235724e+00  3.8772684893217457e+00  3.9280020332228873e+00 
 3.9793994188166768e+00  4.0314693323835940e+00  4.0842205738629715e+00  4.1376620583401715e+00 
 4.1918028175532669e+00  4.2466520014194256e+00  4.3022188795812664e+00  4.3585128429734539e+00 
 4.4155434054097853e+00  4.4733202051910519e+00  4.5318530067339315e+00  4.5911517022211958e+00 
 4.6512263132735221e+00  4.7120869926431599e+00  4.7737440259297772e+00  4.8362078333187499e+00 
 4.8994889713421950e+00  4.9635981346630551e+00  5.0285461578825252e+00  5.0943440173710961e+00 
 5.1610028331236331e+00  5.2285338706386542e+00  5.2969485428222303e+00  5.3662584119167933e+00 
 5.4364751914551848e+00  5.5076107482402676e+00  5.5796771043504503e+00  5.6526864391714398e+00 
 5.7266510914545892e+00  5.8015835614021780e+00  5.8774965127799739e+00  5.9544027750574404e+00 
 6.0323153455759462e+00  6.1112473917453487e+00  6.1912122532693159e+00  6.2722234443997680e+00 
 6.3542946562208362e+00  6.4374397589626282e+00  6.5216728043454166e+00  6.6070080279543495e+00 
 6.6934598516453265e+00  6.7810428859823118e+00  6.8697719327065672e+00  6.9596619872381718e+00 
 7.0507282412102894e+00  7.1429860850365854e+00  7.2364511105122515e+00  7.3311391134490469e+00 
 7.4270660963448361e+00  7.5242482710880418e+00  7.6227020616975025e+00  7.7224441070981564e+00 
 7.8234912639330760e+00  7.9258606094122639e+00  8.0295694441987742e+00  8.1346352953324903e+00 
 8.2410759191923368e+00  8.3489093044970861e+00  8.4581536753455051e+00  8.5688274942962828e+00 
 8.6809494654882347e+00  8.7945385378013530e+00  8.9096139080592138e+00  9.0261950242732780e+00 
 9.1443015889296628e+00  9.2639535623188980e+00  9.3851711659092718e+00  9.5079748857643001e+00 
 9.6323854760049201e+00  9.7584239623169964e+00  9.8861116455046965e+00  1.0015470105090388e+01 
 1.0146521202961647e+01  1.0279287087065891e+01  1.0413790195153547e+01  1.0550053258570012e+01 
 1.0688099306097319e+01  1.0827951667846071e+01  1.0969633979198260e+01  1.1113170184801724e+01 
 1.1258584542616839e+01  1.1405901628016176e+01  1.1555146337937799e+01  1.1706343895092900e+01 
 1.1859519852228500e+01  1.2014700096445932e+01  1.2171910853575813e+01  1.2331178692610273e+01 
 1.2492530530193180e+01  1.2655993635169123e+01  1.2821595633191922e+01  1.2989364511393346e+01 
 1.3159328623113138e+01  1.3331516692690712e+01  1.3505957820319649e+01  1.3682681486965709e+01 
 1.3861717559349170e+01  1.4043096294992390e+01  1.4226848347333391e+01  1.4413004770906367e+01 
 1.4601597026589971e+01  1.4792656986924285e+01  1.4986216941497341e+01  1.5182309602402157e+01 
 1.5380968109765146e+01  1.5582226037346874e+01  1.5786117398216124e+01  1.5992676650498154e+01 
 1.6201938703198266e+01  1.6413938922101373e+01  1.6628713135749077e+01  1.6846297641494669e+01 
 1.7066729211637490e+01  1.7290045099637545e+01  1.7516283046411417e+01  1.7745481286710582e+01 
 1.7977678555583168e+01  1.8212914094920254e+01  1.8451227660087884e+01  1.8692659526645773e+01 
 1.8937250497154004e+01  1.9185041908068744e+01  1.9436075636728201e+01  1.9690394108430006e+01 
 1.9948040303601179e+01  2.0209057765061960e+01  2.0473490605384516e+01  2.0741383514348271e+01 
 2.1012781766492449e+01  2.1287731228767615e+01  2.1566278368287303e+01  2.1848470260181063e+01 
 2.2134354595550263e+01  2.2423979689528021e+01  2.2717394489444548e+01  2.3014648583099387e+01 
 2.3315792207141858e+01  2.3620876255561178e+01  2.3929952288287659e+01  2.4243072539906464e+01 
 2.4560289928485371e+01  2.4881658064518053e+01  2.5207231259984397e+01  2.5537064537529371e+01 
 2.5871213639761823e+01  2.6209735038675390e+01  2.6552685945192202e+01  2.6900124318831704e+01 
 2.7252108877505993e+01  2.7608699107443236e+01  2.7969955273241006e+01  2.8335938428051158e+01 
 2.8706710423897920e+01  2.9082333922131074e+01  2.9462872404015833e+01  2.9848390181461362e+01 
 3.0238952407889609e+01  3.0634625089246427e+01  3.1035475095156691e+01  3.1441570170225479e+01 
 3.1852978945487006e+01  3.2269770950003547e+01  3.2692016622615768e+01  3.3119787323847369e+01 
 3.3553155347964996e+01  3.3992193935196184e+01  3.4436977284107137e+01  3.4887580564142432e+01 
 3.5344079928328888e+01  3.5806552526145559e+01  3.6275076516562216e+01  3.6749731081248356e+01 
 3.7230596437955136e+01  3.7717753854072363e+01  3.8211285660362826e+01  3.8711275264876441e+01 
 3.9217807167046409e+01  3.9730966971969785e+01  4.0250841404874961e+01  4.0777518325778537e+01 
 4.1311086744333529e+01  4.1851636834872700e+01  4.2399259951647906e+01  4.2954048644269285e+01 
 4.3516096673346340e+01  4.4085499026333700e+01  4.4662351933584269e+01  4.5246752884612327e+01 
 4.5838800644569545e+01  4.6438595270936460e+01  4.7046238130432528e+01  4.7661831916147229e+01 
 4.8285480664895523e+01  4.8917289774800309e+01  4.9557366023104912e+01  5.0205817584218750e+01 
 5.0862754047999019e+01  5.1528286438271770e+01  5.2202527231594807e+01  5.2885590376267047e+01 
 5.3577591311585685e+01  5.4278646987355856e+01  5.4988875883655297e+01  5.5708398030857936e+01 
 5.6437335029919161e+01  5.7175810072926744e+01  5.7923947963920632e+01  5.8681875139985024e+01 
 5.9449719692616604e+01  6.0227611389372306e+01  6.1015681695800382e+01  6.1814063797658250e+01 
 6.2622892623421386e+01  6.3442304867086420e+01  6.4272439011272823e+01  6.5113435350626858e+01 
 6.5965436015531310e+01  6.6828584996126509e+01  6.7703028166644543e+01  6.8588913310062509e+01 
 6.9486390143078125e+01  7.0395610341412237e+01  7.1316727565442420e+01  7.2249897486171861e+01 
 7.3195277811538233e+01  7.4153028313066585e+01  7.5123310852871228e+01  7.6106289411010764e+01 
 7.7102130113201071e+01  7.8111001258891037e+01  7.9133073349705512e+01  8.0168519118260448e+01 
 8.1217513557355204e+01  8.2280233949546840e+01  8.3356859897110724e+01  8.4447573352394599e+01 
 8.5552558648568422e+01  8.6672002530777220e+01  8.7806094187701490e+01  8.8955025283530460e+01 
 9.0118989990353910e+01  9.1298185020977655e+01  9.2492809662168455e+01  9.3703065808333989e+01 