  <PP_INFO>

############################################################
#    Opium Parameter File                                  #
############################################################
#-----------------------------------------------------------
#Command line   : opium As As.log ae ps nl tc2 ke upf rpt 
 
#Opium version  : 4.1 
#Compile Host   : andes-login5.olcf.ornl.gov 
#Compile OS     : Linux 4.18.0-348.12.2.el8_5.x86_64 x86_64 
#Compile Date   : Thu Jun 30 15:38:05 EDT 2022 
#-----------------------------------------------------------
#Execution Host : andes-login5.olcf.ornl.gov 
#Execution Date : Thu Jun 30 16:17:41 2022
 
#-----------------------------------------------------------
############################################################
[Atom]
As
11
100   2.00  -
200   2.00  -
210   6.00  -
300   2.00  -
310   6.00  -
320  10.00  -
400   2.00  -
410   1.50  -
420   0.50  -
500   0.00  -
510   0.00  -

[Pseudo]
5 -1 -1 -1 -1 -1
g

[Gaussinfo]
5 4
2 2 2 4
2 3.47938697518409 75.65519437230579
2 1.63747973017064 -3.31145348709338
2 3.22936389274538 67.96186740640852
2 1.66636575135787 -3.09455795155570
2 2.06816256325470 24.30473448724631
2 1.54699940726544 0.93945624468575
1 1.28593131534589 5.0
3 9.93487432688877 6.429656576729450
2 1.89568153750512 -15.01243900647766
2 1.72825641453405 2.89881363078702

[KBdesign]
p

[Relativity]
nrl

[XC]
pbe

[Configs]
16

400   2.00 -
410   2.50 -
420   0.50 -
500   0.00  -
510   0.00  -

400   2.00 -
410   2.00 -
420   1.00 -
500   0.00  -
510   0.00  -

400   2.00 -
410   2.00 -
420   0.00 -
500   1.00  -
510   0.00  -

400   1.00 -
410   3.50 -
420   0.50 -
500   0.00  -
510   0.00  -

400   1.00 -
410   3.00 -
420   1.00 -
500   0.00  -
510   0.00  -

400   2.00 -
410   2.00 -
420   0.00 -
500   0.00  -
510   0.00  -

400   2.00 -
410   1.00 -
420   1.00 -
500   0.00  -
510   0.00  -

400   2.00 -
410   1.00 -
420   0.00 -
500   1.00  -
510   0.00  -

400   2.00 -
410   1.00 -
420   0.00 -
500   1.00  -
510   0.00  -

400   2.00 -
410   1.00 -
420   0.00 -
500   0.00  -
510   0.00  -

400   2.00 -
410   0.00 -
420   1.00 -
500   0.00  -
510   0.00  -

400   2.00 -
410   0.00 -
420   0.00 -
500   1.00  -
510   0.00  -

400   2.00 -
410   0.00 -
420   0.00 -
500   0.00  -
510   0.00  -

400   1.00 -
410   1.00 -
420   0.00 -
500   0.00  -
510   0.00  -

400   1.00 -
410   0.00 -
420   1.00 -
500   0.00  -
510   0.00  -

400   1.00 -
410   0.00 -
420   0.00 -
500   0.00  -
510   0.00  -

############################################################
  </PP_INFO>



<PP_HEADER>
   0         Version Number
   As        Element
   NC        Norm - Conserving pseudopotential
    F      Nonlinear Core Correction
SLA  PW   PBE  PBE     PBE  Exchange-Correlation functional
 5          Z valence
 0          Total energy
 0.000000   0.000000     Suggested cutoff for wfc and rho
 2           Max angular momentum component
 1166           Number of points in mesh
 3  2     Number of Wavefuncitons, Number of Projectors
 Wavefunctions         nl  l   occ
                       S  0  2.000000
                       P  1  1.500000
                      3D  2  0.500000
</PP_HEADER>
<PP_MESH>
  <PP_R>
 3.1176595388187199e-05  3.1584537003572063e-05  3.1997816480884786e-05  3.2416503665340672e-05 
 3.2840669316070426e-05  3.3270385118078580e-05  3.3705723694358411e-05  3.4146758618165460e-05 
 3.4593564425451573e-05  3.5046216627461618e-05  3.5504791723495084e-05  3.5969367213834665e-05 
 3.6440021612843958e-05  3.6916834462236591e-05  3.7399886344519019e-05  3.7889258896608988e-05 
 3.8385034823632577e-05  3.8887297912901463e-05  3.9396133048073163e-05  3.9911626223496586e-05 
 4.0433864558745318e-05  4.0962936313340986e-05  4.1498930901669356e-05  4.2041938908091614e-05 
 4.2592052102253191e-05  4.3149363454593255e-05  4.3713967152056798e-05  4.4285958614012511e-05 
 4.4865434508378860e-05  4.5452492767961192e-05  4.6047232607002644e-05  4.6649754537951549e-05 
 4.7260160388448343e-05  4.7878553318534489e-05  4.8505037838087058e-05  4.9139719824480944e-05 
 4.9782706540482457e-05  5.0434106652376972e-05  5.1094030248333788e-05  5.1762588857011312e-05 
 5.2439895466405627e-05  5.3126064542945850e-05  5.3821212050838950e-05  5.4525455471668333e-05 
 5.5238913824248289e-05  5.5961707684738503e-05  5.6693959207021707e-05  5.7435792143348015e-05 
 5.8187331865249288e-05  5.8948705384727319e-05  5.9720041375718936e-05  6.0501470195842530e-05 
 6.1293123908428559e-05  6.2095136304838694e-05  6.2907642927076784e-05  6.3730781090695813e-05 
 6.4564689908004586e-05  6.5409510311578039e-05  6.6265385078075089e-05  6.7132458852368435e-05 
 6.8010878171989521e-05  6.8900791491894141e-05  6.9802349209551433e-05  7.0715703690361477e-05 
 7.1641009293405415e-05  7.2578422397532474e-05  7.3528101427788387e-05  7.4490206882189643e-05 
 7.5464901358847838e-05  7.6452349583449434e-05  7.7452718437094622e-05  7.8466176984500640e-05 
 7.9492896502574139e-05  8.0533050509357354e-05  8.1586814793353082e-05  8.2654367443233418e-05 
 8.3735888877937059e-05  8.4831561877160563e-05  8.5941571612248728e-05  8.7066105677488525e-05 
 8.8205354121813592e-05  8.9359509480922507e-05  9.0528766809817979e-05  9.1713323715771536e-05 
 9.2913380391719639e-05  9.4129139650096858e-05  9.5360806957111303e-05  9.6608590467469469e-05 
 9.7872701059554431e-05  9.9153352371064935e-05  1.0045076083512072e-04  1.0176514571684018e-04 
 1.0309672915039668e-04  1.0444573617655978e-04  1.0581239478072768e-04  1.0719693593145725e-04 
 1.0859959361949841e-04  1.1002060489733873e-04  1.1146020991926636e-04  1.1291865198195643e-04 
 1.1439617756558877e-04  1.1589303637550367e-04  1.1740948138440265e-04  1.1894576887510164e-04 
 1.2050215848384284e-04  1.2207891324417461e-04  1.2367629963140427e-04  1.2529458760763320e-04 
 1.2693405066738106e-04  1.2859496588380704e-04  1.3027761395553581e-04  1.3198227925409641e-04 
 1.3370924987198153e-04  1.3545881767133600e-04  1.3723127833328210e-04  1.3902693140789013e-04 
 1.4084608036480365e-04  1.4268903264452610e-04  1.4455609971037920e-04  1.4644759710114082e-04 
 1.4836384448437204e-04  1.5030516571044151e-04  1.5227188886725676e-04  1.5426434633571240e-04 
 1.5628287484586282e-04  1.5832781553383059e-04  1.6039951399945910e-04  1.6249832036471985e-04 
 1.6462458933288397e-04  1.6677868024846777e-04  1.6896095715796298e-04  1.7117178887136132e-04 
 1.7341154902448446e-04  1.7568061614212888e-04  1.7797937370203816e-04  1.8030821019971122e-04 
 1.8266751921405903e-04  1.8505769947392035e-04  1.8747915492544798e-04  1.8993229480037673e-04 
 1.9241753368518384e-04  1.9493529159115606e-04  1.9748599402537203e-04  2.0007007206261407e-04 
 2.0268796241822081e-04  2.0534010752189320e-04  2.0802695559246609e-04  2.1074896071365842e-04 
 2.1350658291081426e-04  2.1630028822864830e-04  2.1913054881000883e-04  2.2199784297566996e-04 
 2.2490265530517034e-04  2.2784547671870735e-04  2.3082680456010409e-04  2.3384714268086183e-04 
 2.3690700152531125e-04  2.4000689821688002e-04  2.4314735664548708e-04  2.4632890755608148e-04 
 2.4955208863833945e-04  2.5281744461753546e-04  2.5612552734660178e-04  2.5947689589939321e-04 
 2.6287211666517176e-04  2.6631176344432775e-04  2.6979641754535370e-04  2.7332666788308624e-04 
 2.7690311107823504e-04  2.8052635155821246e-04  2.8419700165928288e-04  2.8791568173004999e-04 
 2.9168302023629673e-04  2.9549965386719738e-04  2.9936622764291918e-04  3.0328339502363316e-04 
 3.0725181801994998e-04  3.1127216730480122e-04  3.1534512232678485e-04  3.1947137142499362e-04 
 3.2365161194534590e-04  3.2788655035843916e-04  3.3217690237894473e-04  3.3652339308656544e-04 
 3.4092675704857598e-04  3.4538773844396646e-04  3.4990709118921020e-04  3.5448557906567798e-04 
 3.5912397584871746e-04  3.6382306543842523e-04  3.6858364199212609e-04  3.7340651005858874e-04 
 3.7829248471399460e-04  3.8324239169968983e-04  3.8825706756173624e-04  3.9333735979228999e-04 
 3.9848412697282960e-04  4.0369823891925837e-04  4.0898057682890536e-04  4.1433203342944980e-04 
 4.1975351312979411e-04  4.2524593217291138e-04  4.3081021879069227e-04  4.3644731336081876e-04 
 4.4215816856569011e-04  4.4794374955342867e-04  4.5380503410099080e-04  4.5974301277941591e-04 
 4.6575868912123353e-04  4.7185307979006382e-04  4.7802721475243427e-04  4.8428213745184884e-04 
 4.9061890498513106e-04  4.9703858828107630e-04  5.0354227228144094e-04  5.1013105612430045e-04 
 5.1680605332980615e-04  5.2356839198837305e-04  5.3041921495132949e-04  5.3735968002406164e-04 
 5.4439096016168601e-04  5.5151424366728071e-04  5.5873073439271278e-04  5.6604165194209036e-04 
 5.7344823187787980e-04  5.8095172592971891e-04  5.8855340220596137e-04  5.9625454540799107e-04 
 6.0405645704733786e-04  6.1196045566563840e-04  6.1996787705747170e-04  6.2808007449611115e-04 
 6.3629841896223197e-04  6.4462429937560905e-04  6.5305912282984872e-04  6.6160431483019055e-04 
 6.7026131953442118e-04  6.7903159999693958e-04  6.8791663841601851e-04  6.9691793638429792e-04 
 7.0603701514255829e-04  7.1527541583681444e-04  7.2463469977877143e-04  7.3411644870969173e-04 
 7.4372226506771208e-04  7.5345377225866019e-04  7.6331261493041251e-04  7.7330045925084600e-04 
 7.8341899318942277e-04  7.9366992680246148e-04  8.0405499252214142e-04  8.1457594544928592e-04 
 8.2523456364998085e-04  8.3603264845607086e-04  8.4697202476958881e-04  8.5805454137116775e-04 
 8.6928207123249124e-04  8.8065651183282846e-04  8.9217978547971317e-04  9.0385383963381856e-04 
 9.1568064723808115e-04  9.2766220705113556e-04  9.3980054398510736e-04  9.5209770944782942e-04 
 9.6455578168953230e-04  9.7717686615407680e-04  9.8996309583477670e-04  1.0029166316348806e-03 
 1.0160396627327700e-03  1.0293344069519335e-03  1.0428031111357871e-03  1.0564480515273952e-03 
 1.0702715341541602e-03  1.0842758952175468e-03  1.0984635014879066e-03  1.1128367507044674e-03 
 1.1273980719805562e-03  1.1421499262141267e-03  1.1570948065036544e-03  1.1722352385694786e-03 
 1.1875737811806544e-03  1.2031130265873907e-03  1.2188556009591449e-03  1.2348041648284559e-03 
 1.2509614135405760e-03  1.2673300777089936e-03  1.2839129236769131e-03  1.3007127539847699e-03 
 1.3177324078438727e-03  1.3349747616162315e-03  1.3524427293006734e-03  1.3701392630253108e-03 
 1.3880673535464634e-03  1.4062300307541001e-03  1.4246303641838977e-03  1.4432714635360009e-03 
 1.4621564792005671e-03  1.4812886027901920e-03  1.5006710676792984e-03  1.5203071495505859e-03 
 1.5402001669486247e-03  1.5603534818407032e-03  1.5807705001850050e-03  1.6014546725062247e-03 
 1.6224094944787160e-03  1.6436385075172648e-03  1.6651452993756029e-03  1.6869335047527420e-03 
 1.7090068059072495e-03  1.7313689332795570e-03  1.7540236661224154e-03  1.7769748331395933e-03 
 1.8002263131329437e-03  1.8237820356579264e-03  1.8476459816877129e-03  1.8718221842859810e-03 
 1.8963147292885109e-03  1.9211277559937033e-03  1.9462654578621288e-03  1.9717320832252343e-03 
 1.9975319360033164e-03  2.0236693764329023e-03  2.0501488218036342e-03  2.0769747472048038e-03 
 2.1041516862816516e-03  2.1316842320015655e-03  2.1595770374303025e-03  2.1878348165183677e-03 
 2.2164623448976844e-03  2.2454644606886820e-03  2.2748460653179586e-03  2.3046121243466278e-03 
 2.3347676683095112e-03  2.3653177935653116e-03  2.3962676631579098e-03  2.4276225076889308e-03 
 2.4593876262017276e-03  2.4915683870769347e-03  2.5241702289397301e-03  2.5571986615789853e-03 
 2.5906592668784277e-03  2.6245576997599922e-03  2.6588996891395173e-03  2.6936910388949452e-03 
 2.7289376288471916e-03  2.7646454157538494e-03  2.8008204343158948e-03  2.8374687981975611e-03 
 2.8745967010595729e-03  2.9122104176058823e-03  2.9503163046441096e-03  2.9889208021598597e-03 
 3.0280304344050954e-03  3.0676518110007507e-03  3.1077916280537739e-03  3.1484566692887854e-03 
 3.1896538071945354e-03  3.2313900041853858e-03  3.2736723137779646e-03  3.3165078817832287e-03 
 3.3599039475141232e-03  3.4038678450090446e-03  3.4484070042713070e-03  3.4935289525248334e-03 
 3.5392413154862767e-03  3.5855518186537704e-03  3.6324682886125772e-03  3.6799986543577857e-03 
 3.7281509486343329e-03  3.7769333092945597e-03  3.8263539806735235e-03  3.8764213149823142e-03 
 3.9271437737195946e-03  3.9785299291016192e-03  4.0305884655109439e-03  4.0833281809641306e-03 
 4.1367579885986175e-03  4.1908869181790601e-03  4.2457241176233921e-03  4.3012788545488366e-03 
 4.3575605178381594e-03  4.4145786192264129e-03  4.4723427949084436e-03  4.5308628071674181e-03 
 4.5901485460246964e-03  4.6502100309112494e-03  4.7110574123609772e-03  4.7727009737261652e-03 
 4.8351511329154037e-03  4.8984184441542324e-03  4.9625135997688335e-03  5.0274474319930611e-03 
 5.0932309147991026e-03  5.1598751657521286e-03  5.2273914478891672e-03  5.2957911716225974e-03 
 5.3650858966685262e-03  5.4352873340004163e-03  5.5064073478282623e-03  5.5784579576036736e-03 
 5.6514513400511938e-03  5.7253998312261781e-03  5.8003159285996463e-03  5.8762122931703600e-03 
 5.9531017516045743e-03  6.0309972984037676e-03  6.1099120981007475e-03  6.1898594874844875e-03 
 6.2708529778540785e-03  6.3529062573021676e-03  6.4360331930282677e-03  6.5202478336823712e-03 
 6.6055644117391874e-03  6.6919973459034698e-03  6.7795612435468111e-03  6.8682709031763229e-03 
 6.9581413169356211e-03  7.0491876731385312e-03  7.1414253588359556e-03  7.2348699624163017e-03 
 7.3295372762399854e-03  7.4254432993083614e-03  7.5226042399675948e-03  7.6210365186479079e-03 
 7.7207567706386758e-03  7.8217818488998322e-03  7.9241288269100464e-03  8.0278150015522121e-03 
 8.1328578960366080e-03  8.2392752628624218e-03  8.3470850868179337e-03  8.4563055880199876e-03 
 8.5669552249932404e-03  8.6790526977897006e-03  8.7926169511490706e-03  8.9076671777004648e-03 
 9.0242228212060079e-03  9.1423035798468520e-03  9.2619294095522553e-03  9.3831205273721598e-03 
 9.5058974148939275e-03  9.6302808217037655e-03  9.7562917688934717e-03  9.8839515526130406e-03 
 1.0013281747669762e-02  1.0144304211174427e-02  1.0277041086235197e-02  1.0411514805699891e-02 
 1.0547748095947163e-02  1.0685763980727311e-02  1.0825585785053353e-02  1.0967237139143009e-02 
 1.1110741982412268e-02  1.1256124567521194e-02  1.1403409464472707e-02  1.1552621564764923e-02 
 1.1703786085597941e-02  1.1856928574135570e-02  1.2012074911822863e-02  1.2169251318760156e-02 
 1.2328484358134315e-02  1.2489800940707983e-02  1.2653228329367565e-02  1.2818794143730730e-02 
 1.2986526364814144e-02  1.3156453339762399e-02  1.3328603786638707e-02  1.3503006799278322e-02 
 1.3679691852205481e-02  1.3858688805614651e-02  1.4040027910416988e-02  1.4223739813352811e-02 
 1.4409855562170981e-02  1.4598406610875995e-02  1.4789424825043867e-02  1.4982942487207433e-02 
 1.5178992302312190e-02  1.5377607403243508e-02  1.5578821356426166e-02  1.5782668167497162e-02 
 1.5989182287052747e-02  1.6198398616470652e-02  1.6410352513808485e-02  1.6625079799779379e-02 
 1.6842616763805735e-02  1.7063000170152227e-02  1.7286267264139069e-02  1.7512455778436537e-02 
 1.7741603939441901e-02  1.7973750473739766e-02  1.8208934614646968e-02  1.8447196108843062e-02 
 1.8688575223087662e-02  1.8933112751025574e-02  1.9180850020081054e-02  1.9431828898442208e-02 
 1.9686091802136825e-02  1.9943681702200813e-02  2.0204642131940360e-02  2.0469017194289230e-02 
 2.0736851569262152e-02  2.1008190521505994e-02  2.1283079907949500e-02  2.1561566185553237e-02 
 2.1843696419160945e-02  2.2129518289453601e-02  2.2419080101007571e-02  2.2712430790458191e-02 
 2.3009619934770197e-02  2.3310697759616288e-02  2.3615715147865465e-02  2.3924723648182315e-02 
 2.4237775483738868e-02  2.4554923561040425e-02  2.4876221478866888e-02  2.5201723537331095e-02 
 2.5531484747055650e-02  2.5865560838469883e-02  2.6204008271228332e-02  2.6546884243752695e-02 
 2.6894246702898406e-02  2.7246154353747814e-02  2.7602666669531487e-02  2.7963843901679331e-02 
 2.8329747090003209e-02  2.8700438073012837e-02  2.9075979498366652e-02  2.9456434833459305e-02 
 2.9841868376147978e-02  3.0232345265618753e-02  3.0627931493395325e-02  3.1028693914491728e-02 
 3.1434700258710965e-02  3.1846019142091550e-02  3.2262720078503761e-02  3.2684873491397662e-02 
 3.3112550725704737e-02  3.3545824059895528e-02  3.3984766718194760e-02  3.4429452882956395e-02 
 3.4879957707200669e-02  3.5336357327315139e-02  3.5798728875921879e-02  3.6267150494913081e-02 
 3.6741701348657285e-02  3.7222461637378183e-02  3.7709512610708859e-02  3.8202936581423028e-02 
 3.8702816939346144e-02  3.9209238165448461e-02  3.9722285846122515e-02  4.0242046687647449e-02 
 4.0768608530842562e-02  4.1302060365912649e-02  4.1842492347487450e-02  4.2389995809858146e-02 
 4.2944663282412997e-02  4.3506588505275036e-02  4.4075866445144350e-02  4.4652593311347723e-02 
 4.5236866572098210e-02  4.5828784970967491e-02  4.6428448543573857e-02  4.7035958634488242e-02 
 4.7651417914361983e-02  4.8274930397278239e-02  4.8906601458330638e-02  4.9546537851431940e-02 
 5.0194847727355683e-02  5.0851640652013953e-02  5.1517027624974225e-02  5.2191121098218676e-02 
 5.2874034995148603e-02  5.3565884729838024e-02  5.4266787226538778e-02  5.4976860939441013e-02 
 5.5696225872692268e-02  5.6425003600678411e-02  5.7163317288570041e-02  5.7911291713137657e-02 
 5.8669053283839319e-02  5.9436730064183929e-02  6.0214451793374556e-02  6.1002349908234478e-02 
 6.1800557565420383e-02  6.2609209663926149e-02  6.3428442867881102e-02  6.4258395629646553e-02 
 6.5099208213214618e-02  6.5951022717913185e-02  6.6813983102420815e-02  6.7688235209096517e-02 
 6.8573926788627115e-02  6.9471207524997552e-02  7.0380229060787919e-02  7.1301145022801299e-02 
 7.2234111048027169e-02  7.3179284809944331e-02  7.4136826045168205e-02  7.5106896580446461e-02 
 7.6089660360008499e-02  7.7085283473272134e-02  7.8093934182913174e-02  7.9115782953302252e-02 
 8.0151002479313671e-02  8.1199767715511198e-02  8.2262255905715981e-02  8.3338646612961018e-02 
 8.4429121749837618e-02  8.5533865609239410e-02  8.6653064895508031e-02  8.7786908755986687e-02 
 8.8935588812986424e-02  9.0099299196170879e-02  9.1278236575364519e-02  9.2472600193790430e-02 
 9.3682591901742843e-02  9.4908416190700270e-02  9.6150280227885132e-02  9.7408393891275494e-02 
 9.8682969805075030e-02  9.9974223375646487e-02  1.0128237282791673e-01  1.0260763924225676e-01 
 1.0395024659184482e-01  1.0531042178051855e-01  1.0668839468112219e-01  1.0808439817435564e-01 
 1.0949866818813186e-01  1.1093144373744931e-01  1.1238296696478596e-01  1.1385348318102198e-01 
 1.1534324090689792e-01  1.1685249191501518e-01  1.1838149127238631e-01  1.1993049738354188e-01 
 1.2149977203420144e-01  1.2308958043551602e-01  1.2470019126888951e-01  1.2633187673138574e-01 
 1.2798491258173167e-01  1.2965957818692039e-01  1.3135615656942504e-01  1.3307493445503027e-01 
 1.3481620232128963e-01  1.3658025444661689e-01  1.3836738896001985e-01  1.4017790789148479e-01 
 1.4201211722302043e-01  1.4387032694036928e-01  1.4575285108539637e-01  1.4766000780916280e-01 
 1.4959211942569406e-01  1.5154951246645201e-01  1.5353251773551924e-01  1.5554147036550606e-01 
 1.5757670987418865e-01  1.5963858022188751e-01  1.6172742986959915e-01  1.6384361183788568e-01 
 1.6598748376653646e-01  1.6815940797501003e-01  1.7035975152366709e-01  1.7258888627580429e-01 
 1.7484718896050036e-01  1.7713504123628399e-01  1.7945282975563503e-01  1.8180094623032994e-01 
 1.8417978749764158e-01  1.8658975558740604e-01  1.8903125778996643e-01  1.9150470672500602e-01 
 1.9401052041128186e-01  1.9654912233727101e-01  1.9912094153274143e-01  2.0172641264125765e-01 
 2.0436597599363862e-01  2.0704007768237329e-01  2.0974916963701173e-01  2.1249370970054210e-01 
 2.1527416170676750e-01  2.1809099555869463e-01  2.2094468730794883e-01  2.2383571923522783e-01 
 2.2676457993180824e-01  2.2973176438211879e-01  2.3273777404739371e-01  2.3578311695042106e-01 
 2.3886830776139967e-01  2.4199386788491964e-01  2.4516032554808098e-01  2.4836821588976524e-01 
 2.5161808105107564e-01  2.5491047026695868e-01  2.5824593995902839e-01  2.6162505382960149e-01 
 2.6504838295696476e-01  2.6851650589188847e-01  2.7203000875540323e-01  2.7558948533785538e-01 
 2.7919553719925927e-01  2.8284877377096224e-01  2.8654981245863986e-01  2.9029927874663936e-01 
 2.9409780630368731e-01  2.9794603708998191e-01  3.0184462146568508e-01  3.0579421830083531e-01 
 3.0979549508669829e-01  3.1384912804857412e-01  3.1795580226008197e-01  3.2211621175893684e-01 
 3.2633105966424669e-01  3.3060105829533926e-01  3.3492692929214629e-01  3.3930940373716217e-01 
 3.4374922227899884e-01  3.4824713525755707e-01  3.5280390283083568e-01  3.5742029510340012e-01 
 3.6209709225653197e-01  3.6683508468008119e-01  3.7163507310604438e-01  3.7649786874388991e-01 
 3.8142429341765455e-01  3.8641517970483341e-01  3.9147137107708796e-01  3.9659372204279419e-01 
 4.0178309829145786e-01  4.0704037684001471e-01  4.1236644618105300e-01  4.1776220643296796e-01 
 4.2322856949208454e-01  4.2876645918677014e-01  4.3437681143356405e-01  4.4006057439534896e-01 
 4.4581870864159351e-01  4.5165218731069012e-01  4.5756199627441818e-01  4.6354913430455835e-01 
 4.6961461324168779e-01  4.7575945816618331e-01  4.8198470757146250e-01  4.8829141353949140e-01 
 4.9468064191858935e-01  5.0115347250355924e-01  5.0771099921817697e-01  5.1435433030006295e-01 
 5.2108458848798267e-01  5.2790291121158861e-01  5.3481045078364930e-01  5.4180837459479303e-01 
 5.4889786531079965e-01  5.5608012107247384e-01  5.6335635569813369e-01  5.7072779888874914e-01 
 5.7819569643576429e-01  5.8576131043163859e-01  5.9342591948314449e-01  6.0119081892745430e-01 
 6.0905732105105503e-01  6.1702675531152873e-01  6.2510046856223334e-01  6.3327982527992466e-01 
 6.4156620779535667e-01  6.4996101652689464e-01  6.5846567021719571e-01  6.6708160617297552e-01 
 6.7581028050791725e-01  6.8465316838875867e-01  6.9361176428459870e-01  7.0268758221946581e-01 
 7.1188215602819238e-01  7.2119703961563619e-01  7.3063380721929372e-01  7.4019405367535052e-01 
 7.4987939468821185e-01  7.5969146710356095e-01  7.6963192918498990e-01  7.7970246089424944e-01 
 7.8990476417516742e-01  8.0024056324128068e-01  8.1071160486723315e-01  8.2131965868397883e-01 
 8.3206651747786231e-01  8.4295399749359845e-01  8.5398393874122303e-01  8.6515820530705922e-01 
 8.7647868566875253e-01  8.8794729301442787e-01  8.9956596556602320e-01  9.1133666690685322e-01 
 9.2326138631345989e-01  9.3534213909180486e-01  9.4758096691786120e-01  9.5997993818266103e-01 
 9.7254114834185901e-01  9.8526672026986839e-01  9.9815880461863382e-01  1.0112195801810944e+00 
 1.0244512542594073e+00  1.0378560630379816e+00  1.0514362719614074e+00  1.0651941761173145e+00 
 1.0791321006242507e+00  1.0932524010246312e+00  1.1075574636828311e+00  1.1220497061884878e+00 
 1.1367315777650768e+00  1.1516055596838393e+00  1.1666741656831210e+00  1.1819399423932004e+00 
 1.1974054697666758e+00  1.2130733615144826e+00  1.2289462655476173e+00  1.2450268644246407e+00 
 1.2613178758050361e+00  1.2778220529085011e+00  1.2945421849802499e+00  1.3114810977623939e+00 
 1.3286416539715118e+00  1.3460267537824462e+00  1.3636393353184437e+00  1.3814823751477039e+00 
 1.3995588887864256e+00  1.4178719312084376e+00  1.4364245973614964e+00  1.4552200226903387e+00 
 1.4742613836665801e+00  1.4935518983255458e+00  1.5130948268101267e+00  1.5328934719217504e+00 
 1.5529511796785638e+00  1.5732713398809166e+00  1.5938573866842476e+00  1.6147127991794628e+00 
 1.6358411019809151e+00  1.6572458658220590e+00  1.6789307081589329e+00  1.7008992937815026e+00 
 1.7231553354330265e+00  1.7457025944375149e+00  1.7685448813354046e+00  1.7916860565275474e+00 
 1.8151300309276299e+00  1.8388807666231237e+00  1.8629422775448916e+00  1.8873186301455469e+00 
 1.9120139440866981e+00  1.9370323929351778e+00  1.9623782048683882e+00  1.9880556633888713e+00 
 2.0140691080482318e+00  2.0404229351805321e+00  2.0671215986452851e+00  2.0941696105801553e+00 
 2.1215715421635393e+00  2.1493320243870948e+00  2.1774557488383901e+00  2.2059474684937941e+00 
 2.2348119985217418e+00  2.2640542170965086e+00  2.2936790662226327e+00  2.3236915525701267e+00 
 2.3540967483206154e+00  2.3848997920245480e+00  2.4161058894696259e+00  2.4477203145605895e+00 
 2.4797484102105249e+00  2.5121955892438268e+00  2.5450673353109798e+00  2.5783692038153063e+00 
 2.6121068228518509e+00  2.6462858941585194e+00  2.6809121940797174e+00  2.7159915745425458e+00 
 2.7515299640457940e+00  2.7875333686618733e+00  2.8240078730518552e+00  2.8609596414937957e+00 
 2.8983949189245086e+00  2.9363200319949803e+00  2.9747413901395849e+00  3.0136654866592956e+00 
 3.0530988998190667e+00  3.0930482939595780e+00  3.1335204206235230e+00  3.1745221196966349e+00 
 3.2160603205636451e+00  3.2581420432793653e+00  3.3007743997550989e+00  3.3439645949605477e+00 
 3.3877199281415042e+00  3.4320477940534175e+00  3.4769556842111320e+00  3.5224511881549687e+00 
 3.5685419947333785e+00  3.6152358934023732e+00  3.6625407755419639e+00  3.7104646357898230e+00 
 3.7590155733923951e+00  3.8082017935736912e+00  3.8580316089219893e+00  3.9085134407946844e+00 
 3.9596558207415136e+00  4.0114673919464128e+00  4.0639569106882307e+00  4.1171332478205658e+00 
 4.1710053902709641e+00  4.2255824425597091e+00  4.2808736283385400e+00  4.3368882919494549e+00 
 4.3936359000039227e+00  4.4511260429827688e+00  4.5093684368569900e+00  4.5683729247297737e+00 
 4.6281494785000055e+00  4.6887082005475476e+00  4.7500593254405610e+00  4.8122132216651750e+00 
 4.8751803933777840e+00  4.9389714821802730e+00  5.0035972689184822e+00  5.0690686755041829e+00 
 5.1353967667609179e+00  5.2025927522939766e+00  5.2706679883848579e+00  5.3396339799104640e+00 
 5.4095023822875223e+00  5.4802850034423258e+00  5.5519938058063190e+00  5.6246409083377769e+00 
 5.6982385885699323e+00  5.7727992846859157e+00  5.8483355976208307e+00  5.9248602931913492e+00 
 6.0023863042531573e+00  6.0809267328866445e+00  6.1604948526111833e+00  6.2411041106283873e+00 
 6.3227681300947189e+00  6.4055007124238355e+00  6.4893158396190644e+00  6.5742276766363883e+00 
 6.6602505737783728e+00  6.7473990691193544e+00  6.8356878909624808e+00  6.9251319603287778e+00 
 7.0157463934788540e+00  7.1075465044675834e+00  7.2005478077322165e+00  7.2947660207143565e+00 
 7.3902170665162457e+00  7.4869170765918085e+00  7.5848823934729017e+00  7.6841295735312451e+00 
 7.7846753897764875e+00  7.8865368346908840e+00  7.9897311231010617e+00  8.0942756950873758e+00 
 8.2001882189313218e+00  8.3074865941015066e+00  8.4161889542787325e+00  8.5263136704205582e+00 
 8.6378793538661380e+00  8.7509048594815102e+00  8.8654092888461342e+00  8.9814119934811050e+00 
 9.0989325781196033e+00  9.2179909040201444e+00  9.3386070923231745e+00  9.4608015274515953e+00 
 9.5845948605557769e+00  9.7100080130036588e+00  9.8370621799164955e+00  9.9657788337508961e+00 
 1.0096179727927717e+01  1.0228286900508445e+01  1.0362122677919672e+01  1.0497709678726320e+01 
 1.0635070817454256e+01  1.0774229308462822e+01  1.0915208669868225e+01  1.1058032727518089e+01 
 1.1202725619018089e+01  1.1349311797811277e+01  1.1497816037310752e+01  1.1648263435086450e+01 
 1.1800679417106670e+01  1.1955089742035140e+01  1.2111520505584283e+01  1.2269998144925461e+01 
 1.2430549443156915e+01  1.2593201533830172e+01  1.2757981905535681e+01  1.2924918406548461e+01 
 1.3094039249534502e+01  1.3265373016318796e+01  1.3438948662715740e+01  1.3614795523422657e+01 
 1.3792943316977565e+01  1.3973422150781582e+01  1.4156262526187177e+01  1.4341495343652971e+01 
 1.4529151907965991e+01  1.4719263933532241e+01  1.4911863549736532e+01  1.5106983306372408e+01 
 1.5304656179143139e+01  1.5504915575234710e+01  1.5707795338961693e+01  1.5913329757487036e+01 
 1.6121553566616655e+01  1.6332501956669887e+01  1.6546210578426734e+01  1.6762715549152919e+01 
 1.6982053458703824e+01  1.7204261375708153e+01  1.7429376853832778e+01  1.7657437938129306e+01 
 1.7888483171463790e+01  1.8122551601030572e+01  1.8359682784951350e+01  1.8599916798960606e+01 
 1.8843294243178491e+01  1.9089856248972335e+01  1.9339644485907961e+01  1.9592701168791930e+01 
 1.9849069064805949e+01  2.0108791500734625e+01  2.0371912370287792e+01  2.0638476141518659e+01 
 2.0908527864339014e+01  2.1182113178132802e+01  2.1459278319469131e+01  2.1740070129916614e+01 
 2.2024536063959516e+01  2.2312724197017758e+01  2.2604683233571738e+01  2.2900462515393524e+01 
 2.3200112029885727e+01  2.3503682418529493e+01  2.3811224985443030e+01  2.4122791706052119e+01 
 2.4438435235874117e+01  2.4758208919416813e+01  2.5082166799193821e+01  2.5410363624857879e+01 
 2.5742854862453662e+01  2.6079696703791683e+01  2.6420946075944848e+01  2.6766660650869301e+01 
 2.7116898855150946e+01  2.7471719879879952e+01  2.7831183690654012e+01  2.8195351037712701e+01 
 2.8564283466204429e+01  2.8938043326587700e+01  2.9316693785168507e+01  2.9700298834775573e+01 
 3.0088923305575303e+01  3.0482632876028227e+01  3.0881494083988809e+01  3.1285574337950536e+01 
 3.1694941928438062e+01  3.2109666039548522e+01  3.2529816760643783e+01  3.2955465098195702e+01 
 3.3386682987786408e+01  3.3823543306265641e+01  3.4266119884066889e+01  3.4714487517685221e+01 
 3.5168721982317876e+01  3.5628900044670509e+01  3.6095099475930915e+01  3.6567399064912586e+01 
 3.7045878631370172e+01  3.7530619039489238e+01  3.8021702211552473e+01  3.8519211141784801e+01 
 3.9023229910379534e+01  3.9533843697708186e+01  4.0051138798716124e+01  4.0575202637506621e+01 
 4.1106123782115773e+01  4.1643991959480644e+01  4.2188898070603400e+01  4.2740934205913831e+01 
 4.3300193660832541e+01  4.3866770951538577e+01  4.4440761830942584e+01  4.5022263304869334e+01 
 4.5611373648451945e+01  4.6208192422740630e+01  4.6812820491528726e+01  4.7425360038398935e+01 
 4.8045914583992577e+01  4.8674589003504828e+01  4.9311489544408907e+01  4.9956723844412110e+01 
 5.0610400949646852e+01  5.1272631333099739e+01  5.1943526913281744e+01  5.2623201073142702e+01 