  <PP_INFO>

############################################################
#    Opium Parameter File                                  #
############################################################
#-----------------------------------------------------------
#Command line   : opium Ti Ti.log ae ps nl tc2 ke upf rpt 
 
#Opium version  : 4.1 
#Compile Host   : andes-login5.olcf.ornl.gov 
#Compile OS     : Linux 4.18.0-348.12.2.el8_5.x86_64 x86_64 
#Compile Date   : Thu Jun 30 15:38:05 EDT 2022 
#-----------------------------------------------------------
#Execution Host : andes-login5.olcf.ornl.gov 
#Execution Date : Thu Jun 30 16:16:46 2022
 
#-----------------------------------------------------------
############################################################
[Atom]
Ti
8            
100   2.00  -
200   2.00  -
210   6.00  -
300   2.00  -
310   6.00  -
320   2.00  -
400   0.00  -
410   0.00  -

[Pseudo]
5 -1 -1 -1 -1 -1
g

[Gaussinfo]
12 3
2 2 4
2 12.70580613 173.94657235
2  6.11178551  18.83768333
2 12.64091929 111.45672882
2  5.35437415  11.17702682
1 18.41366202  12.00000000
3 15.92292414 220.96394426
2 13.65000623 -94.29025824
2  5.09555210   0.09791142

[KBdesign]
s

[Relativity]
nrl

[XC]
pbe

[Configs]
8

300  2.00 -
310  6.00 -
320  2.00 -
400  2.00 -
410  0.00 -

300  2.00 -
310  6.00 -
320  3.00 -
400  1.00 -
410  0.00 -

300  2.00 -
310  6.00 -
320  4.00 -
400  0.00 -
410  0.00 -

300  2.00 -
310  6.00 -
320  2.00 -
400  1.00 -
410  0.00 -

300  2.00 -
310  6.00 -
320  3.00 -
400  0.00 -
410  0.00 -

300  2.00 -
310  6.00 -
320  2.00 -
400  0.00 -
410  0.00 -

300  2.00 -
310  6.00 -
320  1.00 -
400  0.00 -
410  0.00 -

300  2.00 -
310  6.00 -
320  0.00 -
400  0.00 -
410  0.00 -

############################################################
  </PP_INFO>



<PP_HEADER>
   0         Version Number
   Ti        Element
   NC        Norm - Conserving pseudopotential
    F      Nonlinear Core Correction
SLA  PW   PBE  PBE     PBE  Exchange-Correlation functional
 12          Z valence
 0          Total energy
 0.000000   0.000000     Suggested cutoff for wfc and rho
 2           Max angular momentum component
 1156           Number of points in mesh
 3  2     Number of Wavefuncitons, Number of Projectors
 Wavefunctions         nl  l   occ
                       S  0  2.000000
                       P  1  6.000000
                      3D  2  2.000000
</PP_HEADER>
<PP_MESH>
  <PP_R>
 3.5688292775180416e-05  3.6155269352441679e-05  3.6628356256276550e-05  3.7107633439497763e-05 
 3.7593181901090000e-05  3.8085083699898973e-05  3.8583421968499381e-05  3.9088280927244740e-05 
 3.9599745898500691e-05  4.0117903321064714e-05  4.0642840764774494e-05  4.1174646945307407e-05 
 4.1713411739173713e-05  4.2259226198905909e-05  4.2812182568446800e-05  4.3372374298738858e-05 
 4.3939896063517847e-05  4.4514843775312764e-05  4.5097314601655361e-05  4.5687406981501605e-05 
 4.6285220641868161e-05  4.6890856614686499e-05  4.7504417253877498e-05  4.8126006252649555e-05 
 4.8755728661022819e-05  4.9393690903583137e-05  5.0040000797467935e-05  5.0694767570587540e-05 
 5.1358101880085028e-05  5.2030115831037499e-05  5.2710922995402129e-05  5.3400638431210069e-05 
 5.4099378702011636e-05  5.4807261896575531e-05  5.5524407648846535e-05  5.6250937158163665e-05 
 5.6986973209743187e-05  5.7732640195429671e-05  5.8488064134718444e-05  5.9253372696053242e-05 
 6.0028695218402482e-05  6.0814162733117682e-05  6.1609907986078373e-05  6.2416065460126245e-05 
 6.3232771397793156e-05  6.4060163824326412e-05  6.4898382571015368e-05  6.5747569298823245e-05 
 6.6607867522328206e-05  6.7479422633977588e-05  6.8362381928659753e-05  6.9256894628596873e-05 
 7.0163111908564337e-05  7.1081186921439338e-05  7.2011274824084157e-05  7.2953532803568061e-05 
 7.3908120103732228e-05  7.4875198052102405e-05  7.5854930087153666e-05  7.6847481785931670e-05 
 7.7853020892035919e-05  7.8871717343968647e-05  7.9903743303854838e-05  8.0949273186538007e-05 
 8.2008483689056803e-05  8.3081553820507181e-05  8.4168664932295352e-05  8.5270000748786641e-05 
 8.6385747398355411e-05  8.7516093444840875e-05  8.8661229919415277e-05  8.9821350352868359e-05 
 9.0996650808314569e-05  9.2187329914328228e-05  9.3393588898512181e-05  9.4615631621505737e-05 
 9.5853664611437789e-05  9.7107897098830054e-05  9.8378541051958240e-05  9.9665811212674646e-05 
 1.0096992513270027e-04  1.0229110321039150e-04  1.0362956872798801e-04  1.0498554788934796e-04 
 1.0635926985817696e-04  1.0775096679675735e-04  1.0916087390518409e-04  1.1058922946111436e-04 
 1.1203627486003654e-04  1.1350225465606721e-04  1.1498741660328114e-04  1.1649201169758217e-04 
 1.1801629421912236e-04  1.1956052177527578e-04  1.2112495534417493e-04  1.2270985931881625e-04 
 1.2431550155174380e-04  1.2594215340031649e-04  1.2759008977256838e-04  1.2925958917366857e-04 
 1.3095093375298944e-04  1.3266440935179042e-04  1.3440030555152602e-04  1.3615891572278554e-04 
 1.3794053707487361e-04  1.3974547070603929e-04  1.4157402165436189e-04  1.4342649894930396e-04 
 1.4530321566393739e-04  1.4720448896785374e-04  1.4913064018076658e-04  1.5108199482681531e-04 
 1.5305888268957971e-04  1.5506163786781340e-04  1.5709059883190849e-04  1.5914610848109700e-04 
 1.6122851420140194e-04  1.6333816792434637e-04  1.6547542618643065e-04  1.6764065018938797e-04 
 1.6983420586122827e-04  1.7205646391808095e-04  1.7430779992684680e-04  1.7658859436866991e-04 
 1.7889923270323905e-04  1.8124010543393257e-04  1.8361160817381339e-04  1.8601414171248896e-04 
 1.8844811208384559e-04  1.9091393063466917e-04  1.9341201409416375e-04  1.9594278464437942e-04 
 1.9850666999156276e-04  2.0110410343843972e-04  2.0373552395744506e-04  2.0640137626490941e-04 
 2.0910211089621779e-04  2.1183818428195086e-04  2.1461005882502301e-04  2.1741820297882926e-04 
 2.2026309132641526e-04  2.2314520466068313e-04  2.2606503006564560e-04  2.2902306099874581e-04 
 2.3201979737425186e-04  2.3505574564774374e-04  2.3813141890170547e-04  2.4124733693223742e-04 
 2.4440402633690313e-04  2.4760202060372481e-04  2.5084186020134523e-04  2.5412409267036763e-04 
 2.5744927271589119e-04  2.6081796230125793e-04  2.6423073074302556e-04  2.6768815480718349e-04 
 2.7119081880662752e-04  2.7473931469991026e-04  2.7833424219128339e-04  2.8197620883204928e-04 
 2.8566583012323875e-04  2.8940372961963108e-04  2.9319053903513801e-04  2.9702689834956367e-04 
 3.0091345591676347e-04  3.0485086857421609e-04  3.0883980175403229e-04  3.1288092959541353e-04 
 3.1697493505858327e-04  3.2112251004020893e-04  3.2532435549033399e-04  3.2958118153084040e-04 
 3.3389370757546055e-04  3.3826266245136040e-04  3.4268878452231230e-04  3.4717282181348096e-04 
 3.5171553213784096e-04  3.5631768322424929e-04  3.6098005284719331e-04  3.6570342895823568e-04 
 3.7048860981918162e-04  3.7533640413698564e-04  3.8024763120042613e-04  3.8522312101856531e-04 
 3.9026371446102492e-04  3.9537026340009381e-04  4.0054363085469683e-04  4.0578469113624683e-04 
 4.1109432999640572e-04  4.1647344477677823e-04  4.2192294456056516e-04  4.2744375032620021e-04 
 4.3303679510299791e-04  4.3870302412883747e-04  4.4444339500991035e-04  4.5025887788255824e-04 
 4.5615045557722845e-04  4.6211912378457291e-04  4.6816589122372523e-04  4.7429177981277452e-04 
 4.8049782484147282e-04  4.8678507514620024e-04  4.9315459328722305e-04  4.9960745572826687e-04 
 5.0614475301844289e-04  5.1276758997655255e-04  5.1947708587780472e-04  5.2627437464297590e-04 
 5.3316060503004567e-04  5.4013694082833937e-04  5.4720456105521132e-04  5.5436466015530120e-04 
 5.6161844820239897e-04  5.6896715110394921e-04  5.7641201080823332e-04  5.8395428551425994e-04 
 5.9159524988440602e-04  5.9933619525983663e-04  6.0717842987874468e-04  6.1512327909744521e-04 
 6.2317208561436614e-04  6.3132620969696561e-04  6.3958702941162141e-04  6.4795594085652677e-04 
 6.5643435839763471e-04  6.6502371490768919e-04  6.7372546200838372e-04  6.8254107031568952e-04 
 6.9147202968839242e-04  7.0051984947988295e-04  7.0968605879324063e-04  7.1897220673965590e-04 
 7.2837986270023409e-04  7.3791061659122257e-04  7.4756607913271369e-04  7.5734788212085782e-04 
 7.6725767870364215e-04  7.7729714366027436e-04  7.8746797368422746e-04  7.9777188766998316e-04 
 8.0821062700352924e-04  8.1878595585665873e-04  8.2949966148511758e-04  8.4035355453065681e-04 
 8.5134946932703443e-04  8.6248926421002292e-04  8.7377482183147040e-04  8.8520804947747600e-04 
 8.9679087939072415e-04  9.0852526909703825e-04  9.2041320173620817e-04  9.3245668639714379e-04 
 9.4465775845741743e-04  9.5701847992724727e-04  9.6954093979798180e-04  9.8222725439514299e-04 
 9.9507956773609279e-04  1.0081000518923757e-03  1.0212909073568041e-03  1.0346543634153474e-03 
 1.0481926785238847e-03  1.0619081406898930e-03  1.0758030678591215e-03  1.0898798083073342e-03 
 1.1041407410371700e-03  1.1185882761802026e-03  1.1332248554042580e-03  1.1480529523260616e-03 
 1.1630750729292856e-03  1.1782937559880657e-03  1.1937115734960606e-03  1.2093311311011257e-03 
 1.2251550685456723e-03  1.2411860601127902e-03  1.2574268150782101e-03  1.2738800781681757e-03 
 1.2905486300233094e-03  1.3074352876685481e-03  1.3245429049892250e-03  1.3418743732133852e-03 
 1.3594326214004093e-03  1.3772206169360317e-03  1.3952413660338341e-03  1.4134979142433055e-03 
 1.4319933469645460e-03  1.4507307899697063e-03  1.4697134099312516e-03  1.4889444149571345e-03 
 1.5084270551329771e-03  1.5281646230713396e-03  1.5481604544681814e-03  1.5684179286665990e-03 
 1.5889404692279480e-03  1.6097315445104286e-03  1.6307946682552479e-03  1.6521334001804527e-03 
 1.6737513465825242e-03  1.6956521609458582e-03  1.7178395445602082e-03  1.7403172471462142e-03 
 1.7630890674891105e-03  1.7861588540807349e-03  1.8095305057699298e-03  1.8332079724214577e-03 
 1.8571952555835379e-03  1.8814964091641150e-03  1.9061155401159844e-03  1.9310568091308730e-03 
 1.9563244313426068e-03  1.9819226770394784e-03  2.0078558723859393e-03  2.0341284001537232e-03 
 2.0607447004625554e-03  2.0877092715305373e-03  2.1150266704343581e-03  2.1427015138794502e-03 
 2.1707384789802250e-03  2.1991423040505147e-03  2.2279177894043603e-03  2.2570697981672775e-03 
 2.2866032570981274e-03  2.3165231574217636e-03  2.3468345556725539e-03  2.3775425745489452e-03 
 2.4086524037792174e-03  2.4401693009985536e-03  2.4720985926375977e-03  2.5044456748226310e-03 
 2.5372160142875353e-03  2.5704151492976710e-03  2.6040486905858748e-03  2.6381223223006754e-03 
 2.6726418029669311e-03  2.7076129664590342e-03  2.7430417229868500e-03  2.7789340600945550e-03 
 2.8152960436725479e-03  2.8521338189826011e-03  2.8894536116964142e-03  2.9272617289477828e-03 
 2.9655645603985097e-03  3.0043685793182747e-03  3.0436803436786324e-03  3.0835064972613252e-03 
 3.1238537707810989e-03  3.1647289830232096e-03  3.2061390419958137e-03  3.2480909460974347e-03 
 3.2905917852997166e-03  3.3336487423456405e-03  3.3772690939634278e-03  3.4214602120963213e-03 
 3.4662295651484657e-03  3.5115847192470824e-03  3.5575333395211628e-03  3.6040831913968989e-03 
 3.6512421419100448e-03  3.6990181610354824e-03  3.7474193230341568e-03  3.7964538078176439e-03 
 3.8461299023305803e-03  3.8964560019511710e-03  3.9474406119100339e-03  3.9990923487275998e-03 
 4.0514199416703317e-03  4.1044322342259736e-03  4.1581381855981450e-03  4.2125468722204540e-03 
 4.2676674892904365e-03  4.3235093523235719e-03  4.3800818987276193e-03  4.4373946893975710e-03 
 4.4954574103314594e-03  4.5542798742673214e-03  4.6138720223415572e-03  4.6742439257690307e-03 
 4.7354057875451114e-03  4.7973679441700107e-03  4.8601408673956759e-03  4.9237351659955353e-03 
 4.9881615875574138e-03  5.0534310202998978e-03  5.1195544949124714e-03  5.1865431864197148e-03 
 5.2544084160699384e-03  5.3231616532484777e-03  5.3928145174160563e-03  5.4633787800724976e-03 
 5.5348663667461415e-03  5.6072893590092829e-03  5.6806599965199883e-03  5.7549906790906316e-03 
 5.8302939687834695e-03  5.9065825920336960e-03  5.9838694418002138e-03  6.0621675797445842e-03 
 6.1414902384384767e-03  6.2218508236000060e-03  6.3032629163593317e-03  6.3857402755538965e-03 
 6.4692968400537152e-03  6.5539467311170503e-03  6.6397042547769710e-03  6.7265839042590873e-03 
 6.8146003624309443e-03  6.9037685042834607e-03  6.9941033994448364e-03  7.0856203147273613e-03 
 7.1783347167075377e-03  7.2722622743399750e-03  7.3674188616054568e-03  7.4638205601937199e-03 
 7.5614836622212708e-03  7.6604246729847980e-03  7.7606603137506140e-03  7.8622075245805747e-03 
 7.9650834671950044e-03  8.0693055278730583e-03  8.1748913203910575e-03  8.2818586889992305e-03 
 8.3902257114374674e-03  8.5000107019904854e-03  8.6112322145829884e-03  8.7239090459153221e-03 
 8.8380602386401632e-03  8.9537050845807722e-03  9.0708631279913590e-03  9.1895541688601159e-03 
 9.3097982662554302e-03  9.4316157417159638e-03  9.5550271826850049e-03  9.6800534459898085e-03 
 9.8067156613664483e-03  9.9350352350307883e-03  1.0065033853296197e-02  1.0196733486238565e-02 
 1.0330156391409330e-02  1.0465325117597004e-02  1.0602262508638039e-02  1.0740991707277443e-02 
 1.0881536159079979e-02  1.1023919616392507e-02  1.1168166142358200e-02  1.1314300114983267e-02 
 1.1462346231256894e-02  1.1612329511325110e-02  1.1764275302719195e-02  1.1918209284639552e-02 
 1.2074157472295505e-02  1.2232146221301941e-02  1.2392202232133465e-02  1.2554352554636862e-02 
 1.2718624592602564e-02  1.2885046108395975e-02  1.3053645227649372e-02  1.3224450444015169e-02 
 1.3397490623981474e-02  1.3572795011750559e-02  1.3750393234181191e-02  1.3930315305795670e-02 
 1.4112591633852324e-02  1.4297253023484431e-02  1.4484330682906355e-02  1.4673856228687811e-02 
 1.4865861691097099e-02  1.5060379519514371e-02  1.5257442587915599e-02  1.5457084200428378e-02 
 1.5659338096960383e-02  1.5864238458901517e-02  1.6071819914900622e-02  1.6282117546717836e-02 
 1.6495166895153471e-02  1.6711003966054468e-02  1.6929665236399535e-02  1.7151187660463793e-02 
 1.7375608676064157e-02  1.7602966210886403e-02  1.7833298688895053e-02  1.8066645036827103e-02 
 1.8303044690770737e-02  1.8542537602830145e-02  1.8785164247877448e-02  1.9030965630393151e-02 
 1.9279983291395932e-02  1.9532259315463183e-02  1.9787836337843413e-02  2.0046757551661704e-02 
 2.0309066715219450e-02  2.0574808159389609e-02  2.0844026795108758e-02  2.1116768120967060e-02 
 2.1393078230897759e-02  2.1673003821967074e-02  2.1956592202266149e-02  2.2243891298906217e-02 
 2.2534949666118416e-02  2.2829816493459550e-02  2.3128541614125250e-02  2.3431175513371923e-02 
 2.3737769337048801e-02  2.4048374900241830e-02  2.4363044696030452e-02  2.4681831904359110e-02 
 2.5004790401024754e-02  2.5331974766781992e-02  2.5663440296567364e-02  2.5999243008844323e-02 
 2.6339439655070518e-02  2.6684087729288809e-02  2.7033245477844060e-02  2.7386971909226811e-02 
 2.7745326804045858e-02  2.8108370725131358e-02  2.8476165027770041e-02  2.8848771870074442e-02 
 2.9226254223487760e-02  2.9608675883426180e-02  2.9996101480060388e-02  3.0388596489238352e-02 
 3.0786227243550793e-02  3.1189060943541600e-02  3.1597165669064842e-02  3.2010610390790464e-02 
 3.2429464981860487e-02  3.2853800229697701e-02  3.3283687847968986e-02  3.3719200488704956e-02 
 3.4160411754578464e-02  3.4607396211343587e-02  3.5060229400437376e-02  3.5518987851746578e-02 
 3.5983749096541347e-02  3.6454591680578248e-02  3.6931595177374606e-02  3.7414840201656752e-02 
 3.7904408422983878e-02  3.8400382579550654e-02  3.8902846492169997e-02  3.9411885078439061e-02 
 3.9927584367090471e-02  4.0450031512531431e-02  4.0979314809573002e-02  4.1515523708352126e-02 
 4.2058748829448961e-02  4.2609081979201824e-02  4.3166616165222910e-02  4.3731445612116643e-02 
 4.4303665777403890e-02  4.4883373367654529e-02  4.5470666354831081e-02  4.6065643992846177e-02 
 4.6668406834336755e-02  4.7279056747657693e-02  4.7897696934097685e-02  4.8524431945320683e-02 
 4.9159367701035288e-02  4.9802611506895418e-02  5.0454272072635239e-02  5.1114459530441386e-02 
 5.1783285453565545e-02  5.2460862875180585e-02  5.3147306307483495e-02  5.3842731761048063e-02 
 5.4547256764431153e-02  5.5261000384035183e-02  5.5984083244230647e-02  5.6716627547741913e-02 
 5.7458757096299801e-02  5.8210597311564374e-02  5.8972275256321448e-02  5.9743919655956622e-02 
 6.0525660920209903e-02  6.1317631165215623e-02  6.2119964235830168e-02  6.2932795728252083e-02 
 6.3756263012938227e-02  6.4590505257819619e-02  6.5435663451821238e-02  6.6291880428689429e-02 
 6.7159300891131216e-02  6.8038071435269173e-02  6.8928340575416872e-02  6.9830258769177950e-02 
 7.0743978442873792e-02  7.1669654017303977e-02  7.2607441933843817e-02  7.3557500680883195e-02 
 7.4519990820611615e-02  7.5495075016153587e-02  7.6482918059058783e-02  7.7483686897152709e-02 
 7.8497550662750937e-02  7.9524680701242911e-02  8.0565250600049848e-02  8.1619436217961278e-02 
 8.2687415714855703e-02  8.3769369581809972e-02  8.4865480671602850e-02  8.5975934229617218e-02 
 8.7100917925147417e-02  8.8240621883115600e-02  8.9395238716203237e-02  9.0564963557403219e-02 
 9.1749994092997778e-02  9.2950530595967917e-02  9.4166775959840035e-02  9.5398935732975476e-02 
 9.6647218153308415e-02  9.7911834183538979e-02  9.9192997546786218e-02  1.0049092476270777e-01 
 1.0180583518409235e-01  1.0313795103393079e-01  1.0448749744297224e-01  1.0585470248777193e-01 
 1.0723979722923647e-01  1.0864301575167384e-01  1.1006459520235415e-01  1.1150477583158803e-01 
 1.1296380103332981e-01  1.1444191738631079e-01  1.1593937469571290e-01  1.1745642603538550e-01 
 1.1899332779061572e-01  1.2055033970145823e-01  1.2212772490663172e-01  1.2372574998799026e-01 
 1.2534468501557600e-01  1.2698480359326186e-01  1.2864638290499111e-01  1.3032970376162212e-01 
 1.3203505064838617e-01  1.3376271177296595e-01  1.3551297911420357e-01  1.3728614847144549e-01 
 1.3908251951453343e-01  1.4090239583444916e-01  1.4274608499462249e-01  1.4461389858290916e-01 
 1.4650615226425140e-01  1.4842316583402512e-01  1.5036526327208627e-01  1.5233277279752430e-01 
 1.5432602692413180e-01  1.5634536251660042e-01  1.5839112084745138e-01  1.6046364765471177e-01 
 1.6256329320034482e-01  1.6469041232944506e-01  1.6684536453020812e-01  1.6902851399468488e-01 
 1.7124022968033098e-01  1.7348088537236134e-01  1.7575085974692095e-01  1.7805053643508179e-01 
 1.8038030408767802e-01  1.8274055644098730e-01  1.8513169238327531e-01  1.8755411602220742e-01 
 1.9000823675314429e-01  1.9249446932833036e-01  1.9501323392698841e-01  1.9756495622633044e-01 
 2.0015006747349851e-01  2.0276900455844604e-01  2.0542221008777384e-01  2.0811013245953117e-01 
 2.1083322593899645e-01  2.1359195073544884e-01  2.1638677307994508e-01  2.1921816530411323e-01 
 2.2208660591997828e-01  2.2499257970083136e-01  2.2793657776315843e-01  2.3091909764963817e-01 
 2.3394064341323045e-01  2.3700172570236100e-01  2.4010286184722221e-01  2.4324457594720367e-01 
 2.4642739895946583e-01  2.4965186878867318e-01  2.5291853037790141e-01  2.5622793580073416e-01 
 2.5958064435456440e-01  2.6297722265511764e-01  2.6641824473221082e-01  2.6990429212676498e-01 
 2.7343595398908688e-01  2.7701382717843687e-01  2.8063851636389980e-01  2.8431063412657503e-01 
 2.8803080106310497e-01  2.9179964589055524e-01  2.9561780555267242e-01  2.9948592532752699e-01 
 3.0340465893656732e-01  3.0737466865510044e-01  3.1139662542421770e-01  3.1547120896418573e-01 
 3.1959910788932072e-01  3.2378101982436575e-01  3.2801765152239126e-01  3.3230971898423783e-01 
 3.3665794757952200e-01  3.4106307216922560e-01  3.4552583722988889e-01  3.5004699697942898e-01 
 3.5462731550460430e-01  3.5926756689014722e-01  3.6396853534958673e-01  3.6873101535778008e-01 
 3.7355581178518432e-01  3.7844374003387932e-01  3.8339562617537265e-01  3.8841230709020835e-01 
 3.9349463060940110e-01  3.9864345565772225e-01  4.0385965239885946e-01  4.0914410238247712e-01 
 4.1449769869319991e-01  4.1992134610154658e-01  4.2541596121683778e-01  4.3098247264210576e-01 
 4.3662182113103026e-01  4.4233495974692810e-01  4.4812285402382307e-01  4.5398648212962384e-01 
 4.5992683503143716e-01  4.6594491666304028e-01  4.7204174409455352e-01  4.7821834770432364e-01 
 4.8447577135306175e-01  4.9081507256025775e-01  4.9723732268290383e-01  5.0374360709655619e-01 
 5.1033502537876629e-01  5.1701269149491236e-01  5.2377773398646110e-01  5.3063129616169524e-01 
 5.3757453628893470e-01  5.4460862779228625e-01  5.5173475944995587e-01  5.5895413559515472e-01 
 5.6626797631963399e-01  5.7367751767988395e-01  5.8118401190603075e-01  5.8878872761346290e-01 
 5.9649295001723590e-01  6.0429798114927258e-01  6.1220514007841120e-01  6.2021576313333060e-01 
 6.2833120412839294e-01  6.3655283459244205e-01  6.4488204400059468e-01  6.5332024000906497e-01 
 6.6186884869306217e-01  6.7052931478780042e-01  6.7930310193266241e-01  6.8819169291855820e-01 
 6.9719658993851996e-01  7.0631931484157662e-01  7.1556140938994994e-01  7.2492443551961550e-01 
 7.3440997560427546e-01  7.4401963272277782e-01  7.5375503093004925e-01  7.6361781553155772e-01 
 7.7360965336137533e-01  7.8373223306387674e-01  7.9398726537912456e-01  8.0437648343198798e-01 
 8.1490164302504520e-01  8.2556452293531823e-01  8.3636692521489098e-01  8.4731067549545924e-01 
 8.5839762329686764e-01  8.6962964233968243e-01  8.8100863086185521e-01  8.9253651193952976e-01 
 9.0421523381204516e-01  9.1604677021119441e-01  9.2803312069479105e-01  9.4017631098459198e-01 
 9.5247839330866002e-01  9.6494144674818794e-01  9.7756757758887014e-01  9.9035891967687040e-01 
 1.0033176347794461e+00  1.0164459129502925e+00  1.0297459728996670e+00  1.0432200623693566e+00 
 1.0568704585125515e+00  1.0706994682786888e+00  1.0847094288033334e+00  1.0989027078031592e+00 
 1.1132817039760987e+00  1.1278488474067283e+00  1.1426065999769588e+00  1.1575574557820998e+00 
 1.1727039415523686e+00  1.1880486170799065e+00  1.2035940756514016e+00  1.2193429444863524e+00 
 1.2352978851810752e+00  1.2514615941585223e+00  1.2678368031239817e+00  1.2844262795267434e+00 
 1.3012328270278037e+00  1.3182592859736919e+00  1.3355085338764943e+00  1.3529834859001613e+00 
 1.3706870953531771e+00  1.3886223541876754e+00  1.4067922935050867e+00  1.4251999840684026e+00 
 1.4438485368211396e+00  1.4627411034130986e+00  1.4818808767330021e+00  1.5012710914480911e+00 
 1.5209150245508054e+00  1.5408159959125931e+00  1.5609773688449815e+00  1.5814025506679819e+00 
 1.6020949932859361e+00  1.6230581937708968e+00  1.6442956949536403e+00  1.6658110860224136e+00 
 1.6876080031295166e+00  1.7096901300058185e+00  1.7320611985833194e+00  1.7547249896258541e+00 
 1.7776853333680505e+00  1.8009461101626494e+00  1.8245112511362918e+00  1.8483847388538892e+00 
 1.8725706079916911e+00  1.8970729460191393e+00  1.9218958938896820e+00  1.9470436467405903e+00 
 1.9725204546019497e+00  1.9983306231149265e+00  2.0244785142594299e+00  2.0509685470912982e+00 
 2.0778051984891279e+00  2.1049930039108800e+00  2.1325365581603797e+00  2.1604405161638520e+00 
 2.1887095937566134e+00  2.2173485684800602e+00  2.2463622803890844e+00  2.2757556328700534e+00 
 2.3055335934694967e+00  2.3357011947336290e+00  2.3662635350588705e+00  2.3972257795534686e+00 
 2.4285931609104408e+00  2.4603709802918932e+00  2.4925646082249355e+00  2.5251794855093137e+00 
 2.5582211241369137e+00  2.5916951082233068e+00  2.6256070949514747e+00  2.6599628155278885e+00 
 2.6947680761510955e+00  2.7300287589929799e+00  2.7657508231928674e+00  2.8019403058646288e+00 
 2.8386033231169701e+00  2.8757460710870690e+00  2.9133748269877349e+00  2.9514959501682765e+00 
 2.9901158831892474e+00  3.0292411529112369e+00  3.0688783715979553e+00  3.1090342380337019e+00 
 3.1497155386554776e+00  3.1909291486999138e+00  3.2326820333652009e+00  3.2749812489882220e+00 
 3.3178339442370945e+00  3.3612473613193092e+00  3.4052288372056809e+00  3.4497858048703138e+00 
 3.4949257945467944e+00  3.5406564350008143e+00  3.5869854548194549e+00  3.6339206837173310e+00 
 3.6814700538598397e+00  3.7296416012037041e+00  3.7784434668550873e+00  3.8278838984454229e+00 
 3.8779712515253304e+00  3.9287139909766919e+00  3.9801206924432480e+00  4.0322000437798993e+00 
 4.0849608465209757e+00  4.1384120173677159e+00  4.1925625896952123e+00  4.2474217150790716e+00 
 4.3029986648420540e+00  4.3593028316209477e+00  4.4163437309539484e+00  4.4741310028888046e+00 
 4.5326744136120141e+00  4.5919838570993283e+00  4.6520693567878570e+00  4.7129410672700578e+00 
 4.7746092760098922e+00  4.8370844050813959e+00  4.9003770129300870e+00  4.9644977961573344e+00 
 5.0294575913281170e+00  5.0952673768024308e+00  5.1619382745906526e+00  5.2294815522331923e+00 
 5.2979086247047329e+00  5.3672310563433818e+00  5.4374605628050832e+00  5.5086090130435812e+00 
 5.5806884313163048e+00  5.6537109992164991e+00  5.7276890577319408e+00  5.8026351093305930e+00 
 5.8785618200735543e+00  5.9554820217556559e+00  6.0334087140740653e+00  6.1123550668252413e+00 
 6.1923344221307071e+00  6.2733602966918660e+00  6.3554463840743720e+00  6.4386065570223625e+00 
 6.5228548698029982e+00  6.6082055605816548e+00  6.6946730538282173e+00  6.7822719627548480e+00 
 6.8710170917856468e+00  6.9609234390586439e+00  7.0520061989605116e+00  7.1442807646944608e+00 
 7.2377627308817232e+00  7.3324678961970795e+00  7.4284122660388769e+00  7.5256120552339745e+00 
 7.6240836907781047e+00  7.7238438146120192e+00  7.8249092864341003e+00  7.9272971865496284e+00 
 8.0310248187574178e+00  8.1361097132741929e+00  8.2425696296972397e+00  8.3504225600058177e+00 
 8.4596867316018507e+00  8.5703806103903997e+00  8.6825229039004359e+00  8.7961325644464790e+00 
 8.9112287923315563e+00  9.0278310390921277e+00  9.1459590107854147e+00  9.2656326713197910e+00 
 9.3868722458287248e+00  9.5096982240888668e+00  9.6341313639828989e+00  9.7601926950075910e+00 
 9.8879035218279423e+00  1.0017285427877651e+01  1.0148360279006777e+01  1.0281150227177136e+01 
 1.0415677714206019e+01  1.0551965475558923e+01  1.0690036544191896e+01  1.0829914254444160e+01 
 1.0971622245981667e+01  1.1115184467792268e+01  1.1260625182233140e+01  1.1407968969131185e+01 
 1.1557240729937085e+01  1.1708465691933695e+01  1.1861669412499522e+01  1.2016877783427981e+01 
 1.2174117035303196e+01  1.2333413741932929e+01  1.2494794824839767e+01  1.2658287557810825e+01 
 1.2823919571507099e+01  1.2991718858133130e+01  1.3161713776167733e+01  1.3333933055156660e+01 
 1.3508405800567958e+01  1.3685161498710864e+01  1.3864230021719061e+01  1.4045641632599137e+01 
 1.4229426990345109e+01  1.4415617155119863e+01  1.4604243593504394e+01  1.4795338183815742e+01 
 1.4988933221494488e+01  1.5185061424562777e+01  1.5383755939153763e+01  1.5585050345113263e+01 
 1.5788978661675019e+01  1.5995575353209892e+01  1.6204875335050474e+01  1.6416913979391850e+01 
 1.6631727121269588e+01  1.6849351064615941e+01  1.7069822588395297e+01  1.7293178952819922e+01 
 1.7519457905647013e+01  1.7748697688558163e+01  1.7980937043622294e+01  1.8216215219843168e+01 
 1.8454571979792551e+01  1.8696047606330186e+01  1.8940682909411692e+01  1.9188519232985549e+01 
 1.9439598461980342e+01  1.9693963029383301e+01  1.9951655923411767e+01  2.0212720694778159e+01 
 2.0477201464050196e+01  2.0745142929107384e+01  2.1016590372695035e+01  2.1291589670077187e+01 
 2.1570187296789630e+01  2.1852430336494361e+01  2.2138366488936857e+01  2.2428044078007435e+01 
 2.2721512059908115e+01  2.3018820031426316e+01  2.3320018238316845e+01  2.3625157583793545e+01 
 2.3934289637132075e+01  2.4247466642385238e+01  2.4564741527212245e+01  2.4886167911823815e+01 
 2.5211800118043968e+01  2.5541693178490586e+01  2.5875902845876077e+01  2.6214485602429672e+01 
 2.6557498669443088e+01  2.6905000016941059e+01  2.7257048373478391e+01  2.7613703236065252e+01 
 2.7975024880222296e+01  2.8341074370167362e+01  2.8711913569135490e+01  2.9087605149833927e+01 
 2.9468212605034008e+01  2.9853800258301529e+01  3.0244433274867639e+01  3.0640177672641929e+01 
 3.1041100333369432e+01  3.1447269013934093e+01  3.1858752357809657e+01  3.2275619906660602e+01 
 3.2697942112094864e+01  3.3125790347570337e+01  3.3559236920457145e+01  3.3998355084257732e+01 
 3.4443219050986933e+01  3.4893904003713949e+01  3.5350486109268452e+01  3.5813042531113005e+01 
 3.6281651442383819e+01  3.6756392039102238e+01  3.7237344553559033e+01  3.7724590267873857e+01 
 3.8218211527732130e+01  3.8718291756301703e+01  3.9224915468331297e+01  3.9738168284434138e+01 
 4.0258136945557730e+01  4.0784909327643383e+01  4.1318574456477428e+01  4.1859222522736836e+01 
 4.2406944897231575e+01  4.2961834146346582e+01  4.3523984047685644e+01  4.4093489605920055e+01 
 4.4670447068844638e+01  4.5254953943643841e+01  4.5847109013370691e+01  4.6447012353641348e+01 
 4.7054765349548163e+01  4.7670470712793936e+01  4.8294232499050509e+01  4.8926156125544452e+01 
 4.9566348388872512e+01  5.0214917483050996e+01  5.0871973017800471e+01  5.1537626037070169e+01 
 5.2211989037804685e+01  5.2895175988956161e+01  5.3587302350745404e+01  5.4288485094174895e+01 
 5.4998842720797143e+01  5.5718495282741770e+01  5.6447564403004598e+01  5.7186173296002195e+01 
 5.7934446788395441e+01  5.8692511340185504e+01  5.9460495066085926e+01  6.0238527757174239e+01 
 6.1026740902827036e+01  6.1825267712942079e+01  6.2634243140450614e+01  6.3453803904125429e+01 
 6.4284088511686249e+01  6.5125237283207881e+01  6.5977392374834750e+01  6.6840697802805551e+01 
 6.7715299467792335e+01  6.8601345179558152e+01  6.9498984681937145e+01  7.0408369678141696e+01 
 7.1329653856400583e+01  7.2262992915932671e+01  7.3208544593260470e+01  7.4166468688867951e+01 
 7.5136927094207223e+01  7.6120083819058564e+01  7.7116105019248494e+01  7.8125159024730607e+01 
 7.9147416368033191e+01  8.0183049813080501e+01  8.1232234384389614e+01  8.2295147396650265e+01 
 8.3371968484691379e+01  8.4462879633839734e+01  8.5568065210676053e+01  8.6687711994193236e+01 
 8.7822009207362598e+01  8.8971148549112854e+01  9.0135324226727874e+01  9.1314732988667984e+01 